LIGGGHTS (Version LIGGGHTS-PUBLIC 3.8.0, compiled 2021-03-18-16:48:08 by farheez, git commit 3b38a7dbe22018f905d4c5f792ab5ce644ef594e)
### Angle of repose ###

atom_style    granular
atom_modify   map array
boundary      f f f
newton        off

communicate   single vel yes

units         si


#Variables du boundaries
variable xmin equal -0.155
variable xmax equal 0.155
variable ymin equal -0.155
variable ymax equal 0.155
variable zmin equal -0.001
variable zmax equal 0.4

#Variable timestep
variable dt equal 5e-5

#Number of materials
variable natoms equal 1

#Variables material properties
variable youngmodulus equal 5e6
variable poisson equal 0.1753837624034568
variable CoF equal 0.348010506435711
variable CoRest equal 0.0501
variable CoRF equal 1.0

#Variable particle properties
variable nradius equal 1
variable radius1 equal 2e-3
variable frac1 equal 1
variable density equal 2700

#Variable funnel opening
variable openvel equal 0.5	#m/s
variable opentime equal 0.1	#opening during 1s
variable opensteps equal ${opentime}/${dt}
variable opensteps equal 0.1/${dt}
variable opensteps equal 0.1/5e-05


#Definition of simulation box
region        domain block ${xmin} ${xmax} ${ymin} ${ymax} ${zmin} ${zmax} units box
region        domain block -0.155 ${xmax} ${ymin} ${ymax} ${zmin} ${zmax} units box
region        domain block -0.155 0.155 ${ymin} ${ymax} ${zmin} ${zmax} units box
region        domain block -0.155 0.155 -0.155 ${ymax} ${zmin} ${zmax} units box
region        domain block -0.155 0.155 -0.155 0.155 ${zmin} ${zmax} units box
region        domain block -0.155 0.155 -0.155 0.155 -0.001 ${zmax} units box
region        domain block -0.155 0.155 -0.155 0.155 -0.001 0.4 units box
create_box    1 domain
Created orthogonal box = (-0.155 -0.155 -0.001) to (0.155 0.155 0.4)
  1 by 1 by 1 MPI processor grid

neighbor      0.008 bin
neigh_modify  delay 0


#Material properties required for new pair styles

fix  m1 all property/global youngsModulus peratomtype ${youngmodulus}
fix  m1 all property/global youngsModulus peratomtype 5000000
fix  m2 all property/global poissonsRatio peratomtype ${poisson}
fix  m2 all property/global poissonsRatio peratomtype 0.175383762403457
fix  m3 all property/global coefficientRestitution peratomtypepair ${natoms} ${CoRest}
fix  m3 all property/global coefficientRestitution peratomtypepair 1 ${CoRest}
fix  m3 all property/global coefficientRestitution peratomtypepair 1 0.0501
fix  m4 all property/global coefficientFriction peratomtypepair ${natoms} ${CoF}
fix  m4 all property/global coefficientFriction peratomtypepair 1 ${CoF}
fix  m4 all property/global coefficientFriction peratomtypepair 1 0.348010506435711
fix  m5 all property/global coefficientRollingFriction peratomtypepair ${natoms} ${CoRF}
fix  m5 all property/global coefficientRollingFriction peratomtypepair 1 ${CoRF}
fix  m5 all property/global coefficientRollingFriction peratomtypepair 1 1


#New pair style
pair_style  gran model hertz tangential history rolling_friction epsd2
WARNING: 
	The contact model you specified is not located in any whitelist.
	Because of this the model will be run in an unoptimized version (increasing runtime by up to 20%).
	In order to optimize this model you have the following options:
		(i)  Run the genAutoExamplesWhitelist.sh script in your LIGGGHTS(R) source folder to automatically parse the input script
		(ii) Add the model combination by hand to your style_contact_model_user.whitelist that can be found in your LIGGGHTS(R) source folder
	If you perform one of the steps above LIGGGHTS(R) needs to be recompiled to generate the optimized code.

 (../contact_models.h:364)
pair_coeff  * *

#Timestep
timestep    ${dt}
timestep    5e-05


#Gravity vector
fix  gravi all gravity 9.81 vector 0.0 0.0 -1.0


#Loading geometry
fix  funnel all mesh/surface/stress file meshes_angle/funnel.stl type 1 element_exclusion_list read meshes_angle/funnel.exclude curvature_tolerant yes
fix  lid all mesh/surface/stress file meshes_angle/lid.stl  type 1
fix  ground all mesh/surface file meshes_angle/ground.stl type 1


#Definition of geometry as walls
fix  granwalls all wall/gran model hertz tangential history rolling_friction epsd2 mesh n_meshes 3 meshes funnel lid ground
WARNING: 
	The contact model you specified is not located in any whitelist.
	Because of this the model will be run in an unoptimized version (increasing runtime by up to 20%).
	In order to optimize this model you have the following options:
		(i)  Run the genAutoExamplesWhitelist.sh script in your LIGGGHTS(R) source folder to automatically parse the input script
		(ii) Add the model combination by hand to your style_contact_model_user.whitelist that can be found in your LIGGGHTS(R) source folder
	If you perform one of the steps above LIGGGHTS(R) needs to be recompiled to generate the optimized code.

 (../contact_models.h:364)


#Distributions for insertion
fix  pts1 all particletemplate/sphere 15485863 atom_type 1 density constant ${density} radius constant ${radius1}
fix  pts1 all particletemplate/sphere 15485863 atom_type 1 density constant 2700 radius constant ${radius1}
fix  pts1 all particletemplate/sphere 15485863 atom_type 1 density constant 2700 radius constant 0.002
fix  pdd1 all particledistribution/discrete 32452843  ${nradius} pts1 ${frac1}
fix  pdd1 all particledistribution/discrete 32452843  1 pts1 ${frac1}
fix  pdd1 all particledistribution/discrete 32452843  1 pts1 1

#Region and insertion
group  nve_group region domain
0 atoms in group nve_group
region	insert cylinder z 0. 0. 0.1 0.294 0.390 units box

#Particle insertion

fix		ins nve_group insert/pack seed 123457 distributiontemplate pdd1 			maxattempt 100 insert_every 1000 overlapcheck yes all_in yes vel constant 0.0 0.0 -0.2 			region insert particles_in_region 6000 ntry_mc 6000


#Apply nve integration to all particles that are inserted as single particles
fix    integr nve_group nve/sphere

#output settings, include total thermal energy
compute       1 all erotate/sphere
thermo_style  custom step atoms ke c_1 vol
thermo        1000
thermo_modify lost ignore norm no

#Checking timestep
fix  ts_check all check/timestep/gran 1000 0.2 0.2 #every 1000 run warning if timestep > 20% of Rayleigh and Hertz timestep

#insert the first particles so that dump is not empty
run    1
Setting up run at Wed Nov 24 15:53:27 2021

WARNING: Fix mesh: Mesh contains highly skewed element, moving mesh (if used) will not parallelize well (../surface_mesh_I.h:657)
INFO: Particle insertion ins: inserting every 1000 steps
Memory usage per processor = 14.8398 Mbytes
    Step    Atoms         KinEng              1         Volume 
       0        0              0              0      0.0385361 
INFO: Particle insertion ins: inserted 6000 particle templates (mass 5.428672e-01) at step 1
 - a total of 6000 particle templates (mass 5.428672e-01) inserted so far.
       1     6000    0.010883988              0      0.0385361 
Loop time of 0.106784 on 1 procs for 1 steps with 6000 atoms, finish time Wed Nov 24 15:53:27 2021


Pair  time (%) = 0.00165134 (1.54643)
Neigh time (%) = 0.0326644 (30.5892)
Comm  time (%) = 5.1194e-05 (0.0479415)
Outpt time (%) = 0.000177251 (0.16599)
Other time (%) = 0.07224 (67.6505)

Nlocal:    6000 ave 6000 max 6000 min
Histogram: 1 0 0 0 0 0 0 0 0 0
Nghost:    0 ave 0 max 0 min
Histogram: 1 0 0 0 0 0 0 0 0 0
Neighs:    40670 ave 40670 max 40670 min
Histogram: 1 0 0 0 0 0 0 0 0 0

Total # of neighbors = 40670
Ave neighs/atom = 6.77833
Neighbor list builds = 1
Dangerous builds = 0
dump   dmp all custom/vtk 200 post_angle/particle_*.vtk id type type x y z ix iy iz vx vy vz fx fy fz omegax omegay omegaz radius
dump   dumpfunnel all mesh/gran/VTK 200 post_angle/funnel*.vtk stress wear funnel
dump   dumplid all mesh/gran/VTK 200 post_angle/lid*.vtk stress wear lid
dump   dumpground all mesh/stl 200 post_angle/ground_*.stl ground

#Variable kinetic energy
variable ec equal ke


#insert particles
run    5000	every 1000 "print 'KINETIC ENERGY = ${ec}'"
Setting up run at Wed Nov 24 15:53:27 2021

Memory usage per processor = 18.6659 Mbytes
    Step    Atoms         KinEng              1         Volume 
       1     6000    0.010883988              0      0.0385361 
WARNING: time-step is 20.217870 % of rayleigh time (../fix_check_timestep_gran.cpp:200)
    1000     6000     0.12692037  2.4071418e-05      0.0385361 
INFO: Particle insertion ins: inserted 1319 particle templates (mass 1.193403e-01) at step 1001
 - a total of 7319 particle templates (mass 6.622075e-01) inserted so far.
    1001     7319     0.12948951  2.2976556e-05      0.0385361 
Loop time of 2.00619 on 1 procs for 1000 steps with 7319 atoms, finish time Wed Nov 24 15:53:29 2021


Pair  time (%) = 1.07134 (53.4019)
Neigh time (%) = 0.0623088 (3.10583)
Comm  time (%) = 0.00883237 (0.440256)
Outpt time (%) = 0.379706 (18.9268)
Other time (%) = 0.483997 (24.1252)

Nlocal:    7319 ave 7319 max 7319 min
Histogram: 1 0 0 0 0 0 0 0 0 0
Nghost:    0 ave 0 max 0 min
Histogram: 1 0 0 0 0 0 0 0 0 0
Neighs:    55726 ave 55726 max 55726 min
Histogram: 1 0 0 0 0 0 0 0 0 0

Total # of neighbors = 55726
Ave neighs/atom = 7.61388
Neighbor list builds = 6
Dangerous builds = 0
print 'KINETIC ENERGY = ${ec}'
KINETIC ENERGY = 0.129489511667702
Setting up run at Wed Nov 24 15:53:29 2021

Memory usage per processor = 19.6586 Mbytes
    Step    Atoms         KinEng              1         Volume 
    1001     7319     0.12948951  2.2976556e-05      0.0385361 
WARNING: time-step is 20.217870 % of rayleigh time (../fix_check_timestep_gran.cpp:200)
    2000     7319     0.34359491  0.00068152526      0.0385361 
INFO: Particle insertion ins: inserted 3264 particle templates (mass 2.953198e-01) at step 2001
 - a total of 10583 particle templates (mass 9.575273e-01) inserted so far.
    2001    10583     0.34973061   0.0006757021      0.0385361 
Loop time of 3.82288 on 1 procs for 1000 steps with 10583 atoms, finish time Wed Nov 24 15:53:33 2021


Pair  time (%) = 1.85097 (48.4181)
Neigh time (%) = 0.172114 (4.50221)
Comm  time (%) = 0.00754915 (0.197473)
Outpt time (%) = 0.427686 (11.1875)
Other time (%) = 1.36456 (35.6946)

Nlocal:    10583 ave 10583 max 10583 min
Histogram: 1 0 0 0 0 0 0 0 0 0
Nghost:    0 ave 0 max 0 min
Histogram: 1 0 0 0 0 0 0 0 0 0
Neighs:    96517 ave 96517 max 96517 min
Histogram: 1 0 0 0 0 0 0 0 0 0

Total # of neighbors = 96517
Ave neighs/atom = 9.12
Neighbor list builds = 12
Dangerous builds = 0
print 'KINETIC ENERGY = ${ec}'
KINETIC ENERGY = 0.349730606516377
Setting up run at Wed Nov 24 15:53:33 2021

Memory usage per processor = 23.6414 Mbytes
    Step    Atoms         KinEng              1         Volume 
    2001    10583     0.34973061   0.0006757021      0.0385361 
WARNING: time-step is 20.217870 % of rayleigh time (../fix_check_timestep_gran.cpp:200)
    3000    10583     0.54380251   0.0012610866      0.0385361 
INFO: Particle insertion ins: inserted 2701 particle templates (mass 2.443807e-01) at step 3001
 - a total of 13284 particle templates (mass 1.201908e+00) inserted so far.
    3001    13284     0.54886656   0.0012565167      0.0385361 
Loop time of 9.6612 on 1 procs for 1000 steps with 13284 atoms, finish time Wed Nov 24 15:53:43 2021


Pair  time (%) = 4.89913 (50.7093)
Neigh time (%) = 0.404622 (4.18812)
Comm  time (%) = 0.0146746 (0.151892)
Outpt time (%) = 0.605283 (6.26509)
Other time (%) = 3.73749 (38.6856)

Nlocal:    13284 ave 13284 max 13284 min
Histogram: 1 0 0 0 0 0 0 0 0 0
Nghost:    0 ave 0 max 0 min
Histogram: 1 0 0 0 0 0 0 0 0 0
Neighs:    205198 ave 205198 max 205198 min
Histogram: 1 0 0 0 0 0 0 0 0 0

Total # of neighbors = 205198
Ave neighs/atom = 15.447
Neighbor list builds = 19
Dangerous builds = 0
print 'KINETIC ENERGY = ${ec}'
KINETIC ENERGY = 0.54886655968209
Setting up run at Wed Nov 24 15:53:43 2021

Memory usage per processor = 36.47 Mbytes
    Step    Atoms         KinEng              1         Volume 
    3001    13284     0.54886656   0.0012565167      0.0385361 
WARNING: time-step is 20.217870 % of rayleigh time (../fix_check_timestep_gran.cpp:200)
    4000    13284     0.33764736   0.0020623351      0.0385361 
INFO: Particle insertion ins: inserted 2729 particle templates (mass 2.469141e-01) at step 4001
 - a total of 16013 particle templates (mass 1.448822e+00) inserted so far.
    4001    16013      0.3423814   0.0020832758      0.0385361 
Loop time of 18.1381 on 1 procs for 1000 steps with 16013 atoms, finish time Wed Nov 24 15:54:01 2021


Pair  time (%) = 10.7131 (59.0643)
Neigh time (%) = 0.743156 (4.09722)
Comm  time (%) = 0.0214713 (0.118377)
Outpt time (%) = 0.710351 (3.91635)
Other time (%) = 5.94996 (32.8037)

Nlocal:    16013 ave 16013 max 16013 min
Histogram: 1 0 0 0 0 0 0 0 0 0
Nghost:    0 ave 0 max 0 min
Histogram: 1 0 0 0 0 0 0 0 0 0
Neighs:    350041 ave 350041 max 350041 min
Histogram: 1 0 0 0 0 0 0 0 0 0

Total # of neighbors = 350041
Ave neighs/atom = 21.8598
Neighbor list builds = 24
Dangerous builds = 0
print 'KINETIC ENERGY = ${ec}'
KINETIC ENERGY = 0.342381398878963
Setting up run at Wed Nov 24 15:54:01 2021

Memory usage per processor = 44.4912 Mbytes
    Step    Atoms         KinEng              1         Volume 
    4001    16013      0.3423814   0.0020832758      0.0385361 
WARNING: time-step is 20.217870 % of rayleigh time (../fix_check_timestep_gran.cpp:200)
    5000    16013     0.28497535   0.0022776833      0.0385361 
INFO: Particle insertion ins: inserted 2761 particle templates (mass 2.498094e-01) at step 5001
 - a total of 18774 particle templates (mass 1.698632e+00) inserted so far.
    5001    18774     0.29001461   0.0022784611      0.0385361 
Loop time of 26.3388 on 1 procs for 1000 steps with 18774 atoms, finish time Wed Nov 24 15:54:28 2021


Pair  time (%) = 16.698 (63.3971)
Neigh time (%) = 0.954246 (3.62297)
Comm  time (%) = 0.0282637 (0.107309)
Outpt time (%) = 0.842909 (3.20026)
Other time (%) = 7.81534 (29.6724)

Nlocal:    18774 ave 18774 max 18774 min
Histogram: 1 0 0 0 0 0 0 0 0 0
Nghost:    0 ave 0 max 0 min
Histogram: 1 0 0 0 0 0 0 0 0 0
Neighs:    506726 ave 506726 max 506726 min
Histogram: 1 0 0 0 0 0 0 0 0 0

Total # of neighbors = 506726
Ave neighs/atom = 26.9908
Neighbor list builds = 22
Dangerous builds = 0
print 'KINETIC ENERGY = ${ec}'
KINETIC ENERGY = 0.290014614493467
unfix  ins

jump in.12_angle_wait
print 'WAITING FOR THE PARTICLES TO SETTLE'
WAITING FOR THE PARTICLES TO SETTLE

run 1000 every 1000 "print 'KINETIC ENERGY = ${ec} and parameters = (${poisson}, ${CoF}, ${CoRest}, ${CoRF})'"
Setting up run at Wed Nov 24 15:54:28 2021

Memory usage per processor = 57.857 Mbytes
    Step    Atoms         KinEng              1         Volume 
    5001    18774     0.29001461   0.0022784611      0.0385361 
WARNING: time-step is 20.217870 % of rayleigh time (../fix_check_timestep_gran.cpp:200)
    6000    18774     0.24641463   0.0020361065      0.0385361 
    6001    18774     0.24640702   0.0020558968      0.0385361 
Loop time of 36.2532 on 1 procs for 1000 steps with 18774 atoms, finish time Wed Nov 24 15:55:04 2021


Pair  time (%) = 24.7314 (68.2187)
Neigh time (%) = 1.14829 (3.16743)
Comm  time (%) = 0.00839261 (0.02315)
Outpt time (%) = 1.08835 (3.00208)
Other time (%) = 9.27668 (25.5886)

Nlocal:    18774 ave 18774 max 18774 min
Histogram: 1 0 0 0 0 0 0 0 0 0
Nghost:    0 ave 0 max 0 min
Histogram: 1 0 0 0 0 0 0 0 0 0
Neighs:    654427 ave 654427 max 654427 min
Histogram: 1 0 0 0 0 0 0 0 0 0

Total # of neighbors = 654427
Ave neighs/atom = 34.8582
Neighbor list builds = 21
Dangerous builds = 0
print 'KINETIC ENERGY = ${ec} and parameters = (${poisson}, ${CoF}, ${CoRest}, ${CoRF})'
KINETIC ENERGY = 0.246407018912923 and parameters = (0.175383762403457, 0.348010506435711, 0.0501, 1)
if "${ec} < 5e-3" then "jump in.13_angle_open" else "jump in.12_angle_wait"
jump in.12_angle_wait
print 'WAITING FOR THE PARTICLES TO SETTLE'
WAITING FOR THE PARTICLES TO SETTLE

run 1000 every 1000 "print 'KINETIC ENERGY = ${ec} and parameters = (${poisson}, ${CoF}, ${CoRest}, ${CoRF})'"
Setting up run at Wed Nov 24 15:55:04 2021

Memory usage per processor = 64.3397 Mbytes
    Step    Atoms         KinEng              1         Volume 
    6001    18774     0.24640702   0.0020558968      0.0385361 
WARNING: time-step is 20.217870 % of rayleigh time (../fix_check_timestep_gran.cpp:200)
    7000    18774     0.16156207   0.0016128649      0.0385361 
    7001    18774     0.16137381   0.0016197932      0.0385361 
Loop time of 40.3606 on 1 procs for 1000 steps with 18774 atoms, finish time Wed Nov 24 15:55:45 2021


Pair  time (%) = 29.0491 (71.9738)
Neigh time (%) = 1.14728 (2.84257)
Comm  time (%) = 0.0077394 (0.0191756)
Outpt time (%) = 0.992618 (2.45937)
Other time (%) = 9.16393 (22.7051)

Nlocal:    18774 ave 18774 max 18774 min
Histogram: 1 0 0 0 0 0 0 0 0 0
Nghost:    0 ave 0 max 0 min
Histogram: 1 0 0 0 0 0 0 0 0 0
Neighs:    809190 ave 809190 max 809190 min
Histogram: 1 0 0 0 0 0 0 0 0 0

Total # of neighbors = 809190
Ave neighs/atom = 43.1016
Neighbor list builds = 20
Dangerous builds = 0
print 'KINETIC ENERGY = ${ec} and parameters = (${poisson}, ${CoF}, ${CoRest}, ${CoRF})'
KINETIC ENERGY = 0.161373810753907 and parameters = (0.175383762403457, 0.348010506435711, 0.0501, 1)
if "${ec} < 5e-3" then "jump in.13_angle_open" else "jump in.12_angle_wait"
jump in.12_angle_wait
print 'WAITING FOR THE PARTICLES TO SETTLE'
WAITING FOR THE PARTICLES TO SETTLE

run 1000 every 1000 "print 'KINETIC ENERGY = ${ec} and parameters = (${poisson}, ${CoF}, ${CoRest}, ${CoRF})'"
Setting up run at Wed Nov 24 15:55:45 2021

Memory usage per processor = 75.7839 Mbytes
    Step    Atoms         KinEng              1         Volume 
    7001    18774     0.16137381   0.0016197932      0.0385361 
WARNING: time-step is 20.217870 % of rayleigh time (../fix_check_timestep_gran.cpp:200)
    8000    18774    0.017274786    0.001002271      0.0385361 
    8001    18774    0.017184672  0.00098704003      0.0385361 
Loop time of 37.7356 on 1 procs for 1000 steps with 18774 atoms, finish time Wed Nov 24 15:56:22 2021


Pair  time (%) = 28.0721 (74.3915)
Neigh time (%) = 0.961042 (2.54678)
Comm  time (%) = 0.00660137 (0.0174937)
Outpt time (%) = 0.776598 (2.058)
Other time (%) = 7.91926 (20.9862)

Nlocal:    18774 ave 18774 max 18774 min
Histogram: 1 0 0 0 0 0 0 0 0 0
Nghost:    0 ave 0 max 0 min
Histogram: 1 0 0 0 0 0 0 0 0 0
Neighs:    931457 ave 931457 max 931457 min
Histogram: 1 0 0 0 0 0 0 0 0 0

Total # of neighbors = 931457
Ave neighs/atom = 49.6142
Neighbor list builds = 20
Dangerous builds = 0
print 'KINETIC ENERGY = ${ec} and parameters = (${poisson}, ${CoF}, ${CoRest}, ${CoRF})'
KINETIC ENERGY = 0.0171846719079227 and parameters = (0.175383762403457, 0.348010506435711, 0.0501, 1)
if "${ec} < 5e-3" then "jump in.13_angle_open" else "jump in.12_angle_wait"
jump in.12_angle_wait
print 'WAITING FOR THE PARTICLES TO SETTLE'
WAITING FOR THE PARTICLES TO SETTLE

run 1000 every 1000 "print 'KINETIC ENERGY = ${ec} and parameters = (${poisson}, ${CoF}, ${CoRest}, ${CoRF})'"
Setting up run at Wed Nov 24 15:56:22 2021

Memory usage per processor = 81.8874 Mbytes
    Step    Atoms         KinEng              1         Volume 
    8001    18774    0.017184672  0.00098704003      0.0385361 
WARNING: time-step is 20.217870 % of rayleigh time (../fix_check_timestep_gran.cpp:200)
    9000    18774   0.0016888516  0.00028269506      0.0385361 
    9001    18774   0.0016849778  0.00028606441      0.0385361 
Loop time of 43.9103 on 1 procs for 1000 steps with 18774 atoms, finish time Wed Nov 24 15:57:07 2021


Pair  time (%) = 33.7569 (76.8769)
Neigh time (%) = 0.673785 (1.53446)
Comm  time (%) = 0.00481324 (0.0109615)
Outpt time (%) = 0.84431 (1.92281)
Other time (%) = 8.63051 (19.6549)

Nlocal:    18774 ave 18774 max 18774 min
Histogram: 1 0 0 0 0 0 0 0 0 0
Nghost:    0 ave 0 max 0 min
Histogram: 1 0 0 0 0 0 0 0 0 0
Neighs:    946540 ave 946540 max 946540 min
Histogram: 1 0 0 0 0 0 0 0 0 0

Total # of neighbors = 946540
Ave neighs/atom = 50.4176
Neighbor list builds = 12
Dangerous builds = 0
print 'KINETIC ENERGY = ${ec} and parameters = (${poisson}, ${CoF}, ${CoRest}, ${CoRF})'
KINETIC ENERGY = 0.00168497784246888 and parameters = (0.175383762403457, 0.348010506435711, 0.0501, 1)
if "${ec} < 5e-3" then "jump in.13_angle_open" else "jump in.12_angle_wait"
jump in.13_angle_open
print 'OPENING THE FUNNEL'
OPENING THE FUNNEL


fix	Movelid all move/mesh mesh lid linear ${openvel} 0. 0.
fix	Movelid all move/mesh mesh lid linear 0.5 0. 0.
run	${opensteps}
run	2000
Setting up run at Wed Nov 24 15:57:07 2021

Memory usage per processor = 81.8874 Mbytes
    Step    Atoms         KinEng              1         Volume 
    9001    18774   0.0016849778  0.00028606441      0.0385361 
WARNING: time-step is 20.217870 % of rayleigh time (../fix_check_timestep_gran.cpp:200)
   10000    18774   0.0011544527  0.00016552643      0.0385361 
WARNING: time-step is 20.217870 % of rayleigh time (../fix_check_timestep_gran.cpp:200)
   11000    18774    0.013598782  0.00010371681      0.0385361 
   11001    18774     0.01362055  9.7709205e-05      0.0385361 
Loop time of 89.1095 on 1 procs for 2000 steps with 18774 atoms, finish time Wed Nov 24 15:58:36 2021


Pair  time (%) = 69.1005 (77.5456)
Neigh time (%) = 0.909111 (1.02022)
Comm  time (%) = 0.0167696 (0.0188191)
Outpt time (%) = 1.86786 (2.09614)
Other time (%) = 17.2152 (19.3192)

Nlocal:    18774 ave 18774 max 18774 min
Histogram: 1 0 0 0 0 0 0 0 0 0
Nghost:    0 ave 0 max 0 min
Histogram: 1 0 0 0 0 0 0 0 0 0
Neighs:    943505 ave 943505 max 943505 min
Histogram: 1 0 0 0 0 0 0 0 0 0

Total # of neighbors = 943505
Ave neighs/atom = 50.2559
Neighbor list builds = 17
Dangerous builds = 0
unfix	Movelid


jump in.14_angle_emptying
print 'FORMING THE ANGLE OF REPOSE'
FORMING THE ANGLE OF REPOSE

run	1000 every 1000 "print 'KINETIC ENERGY = ${ec} and parameters = (${poisson}, ${CoF}, ${CoRest}, ${CoRF})'"
Setting up run at Wed Nov 24 15:58:36 2021

Memory usage per processor = 81.8874 Mbytes
    Step    Atoms         KinEng              1         Volume 
   11001    18774     0.01362055  9.7709205e-05      0.0385361 
WARNING: time-step is 20.217870 % of rayleigh time (../fix_check_timestep_gran.cpp:200)
   12000    18774    0.052753272  7.8431895e-05      0.0385361 
   12001    18774    0.052798042  7.4303767e-05      0.0385361 
Loop time of 44.3515 on 1 procs for 1000 steps with 18774 atoms, finish time Wed Nov 24 15:59:20 2021


Pair  time (%) = 34.2447 (77.212)
Neigh time (%) = 0.840479 (1.89504)
Comm  time (%) = 0.00578422 (0.0130418)
Outpt time (%) = 0.947788 (2.13699)
Other time (%) = 8.31275 (18.7429)

Nlocal:    18774 ave 18774 max 18774 min
Histogram: 1 0 0 0 0 0 0 0 0 0
Nghost:    0 ave 0 max 0 min
Histogram: 1 0 0 0 0 0 0 0 0 0
Neighs:    923409 ave 923409 max 923409 min
Histogram: 1 0 0 0 0 0 0 0 0 0

Total # of neighbors = 923409
Ave neighs/atom = 49.1855
Neighbor list builds = 15
Dangerous builds = 0
print 'KINETIC ENERGY = ${ec} and parameters = (${poisson}, ${CoF}, ${CoRest}, ${CoRF})'
KINETIC ENERGY = 0.0527980422435933 and parameters = (0.175383762403457, 0.348010506435711, 0.0501, 1)


if "${ec} < 1e-5" then "jump in.15_angle_end" else "jump in.14_angle_emptying"
jump in.14_angle_emptying
print 'FORMING THE ANGLE OF REPOSE'
FORMING THE ANGLE OF REPOSE

run	1000 every 1000 "print 'KINETIC ENERGY = ${ec} and parameters = (${poisson}, ${CoF}, ${CoRest}, ${CoRF})'"
Setting up run at Wed Nov 24 15:59:20 2021

Memory usage per processor = 81.8874 Mbytes
    Step    Atoms         KinEng              1         Volume 
   12001    18774    0.052798042  7.4303767e-05      0.0385361 
WARNING: time-step is 20.217870 % of rayleigh time (../fix_check_timestep_gran.cpp:200)
   13000    18774    0.067356935  0.00034524259      0.0385361 
   13001    18774    0.067288078  0.00034704409      0.0385361 
Loop time of 40.9633 on 1 procs for 1000 steps with 18774 atoms, finish time Wed Nov 24 16:00:02 2021


Pair  time (%) = 31.4765 (76.8408)
Neigh time (%) = 0.897218 (2.19029)
Comm  time (%) = 0.00626921 (0.0153044)
Outpt time (%) = 0.815137 (1.98992)
Other time (%) = 7.76817 (18.9637)

Nlocal:    18774 ave 18774 max 18774 min
Histogram: 1 0 0 0 0 0 0 0 0 0
Nghost:    0 ave 0 max 0 min
Histogram: 1 0 0 0 0 0 0 0 0 0
Neighs:    911915 ave 911915 max 911915 min
Histogram: 1 0 0 0 0 0 0 0 0 0

Total # of neighbors = 911915
Ave neighs/atom = 48.5733
Neighbor list builds = 17
Dangerous builds = 0
print 'KINETIC ENERGY = ${ec} and parameters = (${poisson}, ${CoF}, ${CoRest}, ${CoRF})'
KINETIC ENERGY = 0.0672880780587259 and parameters = (0.175383762403457, 0.348010506435711, 0.0501, 1)


if "${ec} < 1e-5" then "jump in.15_angle_end" else "jump in.14_angle_emptying"
jump in.14_angle_emptying
print 'FORMING THE ANGLE OF REPOSE'
FORMING THE ANGLE OF REPOSE

run	1000 every 1000 "print 'KINETIC ENERGY = ${ec} and parameters = (${poisson}, ${CoF}, ${CoRest}, ${CoRF})'"
Setting up run at Wed Nov 24 16:00:02 2021

Memory usage per processor = 81.8874 Mbytes
    Step    Atoms         KinEng              1         Volume 
   13001    18774    0.067288078  0.00034704409      0.0385361 
WARNING: time-step is 20.217870 % of rayleigh time (../fix_check_timestep_gran.cpp:200)
   14000    18774      0.0515837  0.00027876854      0.0385361 
   14001    18774    0.051593469   0.0002831906      0.0385361 
Loop time of 44.5908 on 1 procs for 1000 steps with 18774 atoms, finish time Wed Nov 24 16:00:46 2021


Pair  time (%) = 34.0152 (76.2829)
Neigh time (%) = 1.07413 (2.40886)
Comm  time (%) = 0.00663942 (0.0148897)
Outpt time (%) = 0.925426 (2.07537)
Other time (%) = 8.56947 (19.218)

Nlocal:    18774 ave 18774 max 18774 min
Histogram: 1 0 0 0 0 0 0 0 0 0
Nghost:    0 ave 0 max 0 min
Histogram: 1 0 0 0 0 0 0 0 0 0
Neighs:    887112 ave 887112 max 887112 min
Histogram: 1 0 0 0 0 0 0 0 0 0

Total # of neighbors = 887112
Ave neighs/atom = 47.2522
Neighbor list builds = 18
Dangerous builds = 0
print 'KINETIC ENERGY = ${ec} and parameters = (${poisson}, ${CoF}, ${CoRest}, ${CoRF})'
KINETIC ENERGY = 0.0515934691160233 and parameters = (0.175383762403457, 0.348010506435711, 0.0501, 1)


if "${ec} < 1e-5" then "jump in.15_angle_end" else "jump in.14_angle_emptying"
jump in.14_angle_emptying
print 'FORMING THE ANGLE OF REPOSE'
FORMING THE ANGLE OF REPOSE

run	1000 every 1000 "print 'KINETIC ENERGY = ${ec} and parameters = (${poisson}, ${CoF}, ${CoRest}, ${CoRF})'"
Setting up run at Wed Nov 24 16:00:46 2021

Memory usage per processor = 81.8874 Mbytes
    Step    Atoms         KinEng              1         Volume 
   14001    18774    0.051593469   0.0002831906      0.0385361 
WARNING: time-step is 20.217870 % of rayleigh time (../fix_check_timestep_gran.cpp:200)
   15000    18774    0.049854358   0.0002383528      0.0385361 
   15001    18774    0.049839725  0.00023625103      0.0385361 
Loop time of 42.6122 on 1 procs for 1000 steps with 18774 atoms, finish time Wed Nov 24 16:01:29 2021


Pair  time (%) = 32.1648 (75.4826)
Neigh time (%) = 1.10086 (2.58343)
Comm  time (%) = 0.00630639 (0.0147995)
Outpt time (%) = 0.910616 (2.13698)
Other time (%) = 8.42962 (19.7822)

Nlocal:    18774 ave 18774 max 18774 min
Histogram: 1 0 0 0 0 0 0 0 0 0
Nghost:    0 ave 0 max 0 min
Histogram: 1 0 0 0 0 0 0 0 0 0
Neighs:    871304 ave 871304 max 871304 min
Histogram: 1 0 0 0 0 0 0 0 0 0

Total # of neighbors = 871304
Ave neighs/atom = 46.4101
Neighbor list builds = 19
Dangerous builds = 0
print 'KINETIC ENERGY = ${ec} and parameters = (${poisson}, ${CoF}, ${CoRest}, ${CoRF})'
KINETIC ENERGY = 0.0498397251720347 and parameters = (0.175383762403457, 0.348010506435711, 0.0501, 1)


if "${ec} < 1e-5" then "jump in.15_angle_end" else "jump in.14_angle_emptying"
jump in.14_angle_emptying
print 'FORMING THE ANGLE OF REPOSE'
FORMING THE ANGLE OF REPOSE

run	1000 every 1000 "print 'KINETIC ENERGY = ${ec} and parameters = (${poisson}, ${CoF}, ${CoRest}, ${CoRF})'"
Setting up run at Wed Nov 24 16:01:29 2021

Memory usage per processor = 81.8874 Mbytes
    Step    Atoms         KinEng              1         Volume 
   15001    18774    0.049839725  0.00023625103      0.0385361 
WARNING: time-step is 20.217870 % of rayleigh time (../fix_check_timestep_gran.cpp:200)
   16000    18773    0.049528562  0.00020413758      0.0385361 
   16001    18773    0.049526614  0.00020283599      0.0385361 
Loop time of 29.3688 on 1 procs for 1000 steps with 18773 atoms, finish time Wed Nov 24 16:01:59 2021


Pair  time (%) = 22.0432 (75.0565)
Neigh time (%) = 0.79991 (2.72368)
Comm  time (%) = 0.00417451 (0.0142141)
Outpt time (%) = 0.685742 (2.33494)
Other time (%) = 5.83577 (19.8707)

Nlocal:    18773 ave 18773 max 18773 min
Histogram: 1 0 0 0 0 0 0 0 0 0
Nghost:    0 ave 0 max 0 min
Histogram: 1 0 0 0 0 0 0 0 0 0
Neighs:    859390 ave 859390 max 859390 min
Histogram: 1 0 0 0 0 0 0 0 0 0

Total # of neighbors = 859390
Ave neighs/atom = 45.778
Neighbor list builds = 19
Dangerous builds = 0
print 'KINETIC ENERGY = ${ec} and parameters = (${poisson}, ${CoF}, ${CoRest}, ${CoRF})'
KINETIC ENERGY = 0.0495266137661049 and parameters = (0.175383762403457, 0.348010506435711, 0.0501, 1)


if "${ec} < 1e-5" then "jump in.15_angle_end" else "jump in.14_angle_emptying"
jump in.14_angle_emptying
print 'FORMING THE ANGLE OF REPOSE'
FORMING THE ANGLE OF REPOSE

run	1000 every 1000 "print 'KINETIC ENERGY = ${ec} and parameters = (${poisson}, ${CoF}, ${CoRest}, ${CoRF})'"
Setting up run at Wed Nov 24 16:01:59 2021

Memory usage per processor = 81.8874 Mbytes
    Step    Atoms         KinEng              1         Volume 
   16001    18772    0.049516304  0.00020240137      0.0385361 
WARNING: time-step is 20.217870 % of rayleigh time (../fix_check_timestep_gran.cpp:200)
   17000    18768    0.046854142  0.00017865933      0.0385361 
   17001    18768    0.046868194  0.00017670123      0.0385361 
Loop time of 28.9315 on 1 procs for 1000 steps with 18768 atoms, finish time Wed Nov 24 16:02:28 2021


Pair  time (%) = 21.6593 (74.8642)
Neigh time (%) = 0.775925 (2.68194)
Comm  time (%) = 0.00450274 (0.0155634)
Outpt time (%) = 0.698332 (2.41375)
Other time (%) = 5.7934 (20.0245)

Nlocal:    18768 ave 18768 max 18768 min
Histogram: 1 0 0 0 0 0 0 0 0 0
Nghost:    0 ave 0 max 0 min
Histogram: 1 0 0 0 0 0 0 0 0 0
Neighs:    851134 ave 851134 max 851134 min
Histogram: 1 0 0 0 0 0 0 0 0 0

Total # of neighbors = 851134
Ave neighs/atom = 45.3503
Neighbor list builds = 19
Dangerous builds = 0
print 'KINETIC ENERGY = ${ec} and parameters = (${poisson}, ${CoF}, ${CoRest}, ${CoRF})'
KINETIC ENERGY = 0.0468681935053616 and parameters = (0.175383762403457, 0.348010506435711, 0.0501, 1)


if "${ec} < 1e-5" then "jump in.15_angle_end" else "jump in.14_angle_emptying"
jump in.14_angle_emptying
print 'FORMING THE ANGLE OF REPOSE'
FORMING THE ANGLE OF REPOSE

run	1000 every 1000 "print 'KINETIC ENERGY = ${ec} and parameters = (${poisson}, ${CoF}, ${CoRest}, ${CoRF})'"
Setting up run at Wed Nov 24 16:02:28 2021

Memory usage per processor = 81.8874 Mbytes
    Step    Atoms         KinEng              1         Volume 
   17001    18768    0.046868194  0.00017670123      0.0385361 
WARNING: time-step is 20.217870 % of rayleigh time (../fix_check_timestep_gran.cpp:200)
   18000    18768    0.043960308  0.00018411905      0.0385361 
   18001    18768    0.043947431  0.00018200464      0.0385361 
Loop time of 28.5568 on 1 procs for 1000 steps with 18768 atoms, finish time Wed Nov 24 16:02:56 2021


Pair  time (%) = 21.3694 (74.831)
Neigh time (%) = 0.760076 (2.66163)
Comm  time (%) = 0.00424204 (0.0148547)
Outpt time (%) = 0.696332 (2.43841)
Other time (%) = 5.72683 (20.0541)

Nlocal:    18768 ave 18768 max 18768 min
Histogram: 1 0 0 0 0 0 0 0 0 0
Nghost:    0 ave 0 max 0 min
Histogram: 1 0 0 0 0 0 0 0 0 0
Neighs:    845817 ave 845817 max 845817 min
Histogram: 1 0 0 0 0 0 0 0 0 0

Total # of neighbors = 845817
Ave neighs/atom = 45.067
Neighbor list builds = 19
Dangerous builds = 0
print 'KINETIC ENERGY = ${ec} and parameters = (${poisson}, ${CoF}, ${CoRest}, ${CoRF})'
KINETIC ENERGY = 0.0439474307012893 and parameters = (0.175383762403457, 0.348010506435711, 0.0501, 1)


if "${ec} < 1e-5" then "jump in.15_angle_end" else "jump in.14_angle_emptying"
jump in.14_angle_emptying
print 'FORMING THE ANGLE OF REPOSE'
FORMING THE ANGLE OF REPOSE

run	1000 every 1000 "print 'KINETIC ENERGY = ${ec} and parameters = (${poisson}, ${CoF}, ${CoRest}, ${CoRF})'"
Setting up run at Wed Nov 24 16:02:56 2021

Memory usage per processor = 81.8874 Mbytes
    Step    Atoms         KinEng              1         Volume 
   18001    18768    0.043947431  0.00018200464      0.0385361 
WARNING: time-step is 20.217870 % of rayleigh time (../fix_check_timestep_gran.cpp:200)
   19000    18768    0.040190581  0.00016401832      0.0385361 
   19001    18768    0.040178106  0.00016136599      0.0385361 
Loop time of 28.5699 on 1 procs for 1000 steps with 18768 atoms, finish time Wed Nov 24 16:03:25 2021


Pair  time (%) = 21.3513 (74.7335)
Neigh time (%) = 0.758734 (2.65571)
Comm  time (%) = 0.0104786 (0.036677)
Outpt time (%) = 0.689247 (2.41249)
Other time (%) = 5.76015 (20.1616)

Nlocal:    18768 ave 18768 max 18768 min
Histogram: 1 0 0 0 0 0 0 0 0 0
Nghost:    0 ave 0 max 0 min
Histogram: 1 0 0 0 0 0 0 0 0 0
Neighs:    843629 ave 843629 max 843629 min
Histogram: 1 0 0 0 0 0 0 0 0 0

Total # of neighbors = 843629
Ave neighs/atom = 44.9504
Neighbor list builds = 19
Dangerous builds = 0
print 'KINETIC ENERGY = ${ec} and parameters = (${poisson}, ${CoF}, ${CoRest}, ${CoRF})'
KINETIC ENERGY = 0.0401781062403908 and parameters = (0.175383762403457, 0.348010506435711, 0.0501, 1)


if "${ec} < 1e-5" then "jump in.15_angle_end" else "jump in.14_angle_emptying"
jump in.14_angle_emptying
print 'FORMING THE ANGLE OF REPOSE'
FORMING THE ANGLE OF REPOSE

run	1000 every 1000 "print 'KINETIC ENERGY = ${ec} and parameters = (${poisson}, ${CoF}, ${CoRest}, ${CoRF})'"
Setting up run at Wed Nov 24 16:03:25 2021

Memory usage per processor = 81.8874 Mbytes
    Step    Atoms         KinEng              1         Volume 
   19001    18768    0.040178106  0.00016136599      0.0385361 
WARNING: time-step is 20.217870 % of rayleigh time (../fix_check_timestep_gran.cpp:200)
   20000    18768     0.04200211  0.00018393631      0.0385361 
   20001    18768    0.041990086  0.00018194559      0.0385361 
Loop time of 28.4478 on 1 procs for 1000 steps with 18768 atoms, finish time Wed Nov 24 16:03:54 2021


Pair  time (%) = 21.3156 (74.9286)
Neigh time (%) = 0.715482 (2.51507)
Comm  time (%) = 0.00435956 (0.0153248)
Outpt time (%) = 0.692404 (2.43394)
Other time (%) = 5.72002 (20.1071)

Nlocal:    18768 ave 18768 max 18768 min
Histogram: 1 0 0 0 0 0 0 0 0 0
Nghost:    0 ave 0 max 0 min
Histogram: 1 0 0 0 0 0 0 0 0 0
Neighs:    841426 ave 841426 max 841426 min
Histogram: 1 0 0 0 0 0 0 0 0 0

Total # of neighbors = 841426
Ave neighs/atom = 44.833
Neighbor list builds = 18
Dangerous builds = 0
print 'KINETIC ENERGY = ${ec} and parameters = (${poisson}, ${CoF}, ${CoRest}, ${CoRF})'
KINETIC ENERGY = 0.0419900856719483 and parameters = (0.175383762403457, 0.348010506435711, 0.0501, 1)


if "${ec} < 1e-5" then "jump in.15_angle_end" else "jump in.14_angle_emptying"
jump in.14_angle_emptying
print 'FORMING THE ANGLE OF REPOSE'
FORMING THE ANGLE OF REPOSE

run	1000 every 1000 "print 'KINETIC ENERGY = ${ec} and parameters = (${poisson}, ${CoF}, ${CoRest}, ${CoRF})'"
Setting up run at Wed Nov 24 16:03:54 2021

Memory usage per processor = 81.8874 Mbytes
    Step    Atoms         KinEng              1         Volume 
   20001    18768    0.041990086  0.00018194559      0.0385361 
WARNING: time-step is 20.217870 % of rayleigh time (../fix_check_timestep_gran.cpp:200)
   21000    18768    0.040381289  0.00017611049      0.0385361 
   21001    18768    0.040374154  0.00017636058      0.0385361 
Loop time of 28.3686 on 1 procs for 1000 steps with 18768 atoms, finish time Wed Nov 24 16:04:22 2021


Pair  time (%) = 21.2599 (74.9416)
Neigh time (%) = 0.717664 (2.52978)
Comm  time (%) = 0.0039977 (0.014092)
Outpt time (%) = 0.691065 (2.43602)
Other time (%) = 5.696 (20.0785)

Nlocal:    18768 ave 18768 max 18768 min
Histogram: 1 0 0 0 0 0 0 0 0 0
Nghost:    0 ave 0 max 0 min
Histogram: 1 0 0 0 0 0 0 0 0 0
Neighs:    838618 ave 838618 max 838618 min
Histogram: 1 0 0 0 0 0 0 0 0 0

Total # of neighbors = 838618
Ave neighs/atom = 44.6834
Neighbor list builds = 18
Dangerous builds = 0
print 'KINETIC ENERGY = ${ec} and parameters = (${poisson}, ${CoF}, ${CoRest}, ${CoRF})'
KINETIC ENERGY = 0.0403741543571999 and parameters = (0.175383762403457, 0.348010506435711, 0.0501, 1)


if "${ec} < 1e-5" then "jump in.15_angle_end" else "jump in.14_angle_emptying"
jump in.14_angle_emptying
print 'FORMING THE ANGLE OF REPOSE'
FORMING THE ANGLE OF REPOSE

run	1000 every 1000 "print 'KINETIC ENERGY = ${ec} and parameters = (${poisson}, ${CoF}, ${CoRest}, ${CoRF})'"
Setting up run at Wed Nov 24 16:04:22 2021

Memory usage per processor = 81.8874 Mbytes
    Step    Atoms         KinEng              1         Volume 
   21001    18768    0.040374154  0.00017636058      0.0385361 
WARNING: time-step is 20.217870 % of rayleigh time (../fix_check_timestep_gran.cpp:200)
   22000    18768    0.037901554  0.00018462127      0.0385361 
   22001    18768    0.037894349  0.00018531458      0.0385361 
Loop time of 28.3547 on 1 procs for 1000 steps with 18768 atoms, finish time Wed Nov 24 16:04:51 2021


Pair  time (%) = 21.2437 (74.9214)
Neigh time (%) = 0.713977 (2.51802)
Comm  time (%) = 0.0040839 (0.0144029)
Outpt time (%) = 0.700921 (2.47198)
Other time (%) = 5.69198 (20.0742)

Nlocal:    18768 ave 18768 max 18768 min
Histogram: 1 0 0 0 0 0 0 0 0 0
Nghost:    0 ave 0 max 0 min
Histogram: 1 0 0 0 0 0 0 0 0 0
Neighs:    835811 ave 835811 max 835811 min
Histogram: 1 0 0 0 0 0 0 0 0 0

Total # of neighbors = 835811
Ave neighs/atom = 44.5338
Neighbor list builds = 18
Dangerous builds = 0
print 'KINETIC ENERGY = ${ec} and parameters = (${poisson}, ${CoF}, ${CoRest}, ${CoRF})'
KINETIC ENERGY = 0.0378943491002377 and parameters = (0.175383762403457, 0.348010506435711, 0.0501, 1)


if "${ec} < 1e-5" then "jump in.15_angle_end" else "jump in.14_angle_emptying"
jump in.14_angle_emptying
print 'FORMING THE ANGLE OF REPOSE'
FORMING THE ANGLE OF REPOSE

run	1000 every 1000 "print 'KINETIC ENERGY = ${ec} and parameters = (${poisson}, ${CoF}, ${CoRest}, ${CoRF})'"
Setting up run at Wed Nov 24 16:04:51 2021

Memory usage per processor = 81.8874 Mbytes
    Step    Atoms         KinEng              1         Volume 
   22001    18768    0.037894349  0.00018531458      0.0385361 
WARNING: time-step is 20.217870 % of rayleigh time (../fix_check_timestep_gran.cpp:200)
   23000    18768    0.037284059  0.00016350582      0.0385361 
   23001    18768     0.03728705   0.0001634989      0.0385361 
Loop time of 30.8397 on 1 procs for 1000 steps with 18768 atoms, finish time Wed Nov 24 16:05:22 2021


Pair  time (%) = 23.1219 (74.9744)
Neigh time (%) = 0.797969 (2.58748)
Comm  time (%) = 0.00454263 (0.0147298)
Outpt time (%) = 0.79426 (2.57545)
Other time (%) = 6.12105 (19.848)

Nlocal:    18768 ave 18768 max 18768 min
Histogram: 1 0 0 0 0 0 0 0 0 0
Nghost:    0 ave 0 max 0 min
Histogram: 1 0 0 0 0 0 0 0 0 0
Neighs:    834737 ave 834737 max 834737 min
Histogram: 1 0 0 0 0 0 0 0 0 0

Total # of neighbors = 834737
Ave neighs/atom = 44.4766
Neighbor list builds = 18
Dangerous builds = 0
print 'KINETIC ENERGY = ${ec} and parameters = (${poisson}, ${CoF}, ${CoRest}, ${CoRF})'
KINETIC ENERGY = 0.0372870496003533 and parameters = (0.175383762403457, 0.348010506435711, 0.0501, 1)


if "${ec} < 1e-5" then "jump in.15_angle_end" else "jump in.14_angle_emptying"
jump in.14_angle_emptying
print 'FORMING THE ANGLE OF REPOSE'
FORMING THE ANGLE OF REPOSE

run	1000 every 1000 "print 'KINETIC ENERGY = ${ec} and parameters = (${poisson}, ${CoF}, ${CoRest}, ${CoRF})'"
Setting up run at Wed Nov 24 16:05:22 2021

Memory usage per processor = 81.8874 Mbytes
    Step    Atoms         KinEng              1         Volume 
   23001    18768     0.03728705   0.0001634989      0.0385361 
WARNING: time-step is 20.217870 % of rayleigh time (../fix_check_timestep_gran.cpp:200)
   24000    18768    0.035049799   0.0001620978      0.0385361 
   24001    18768    0.035039688  0.00016201564      0.0385361 
Loop time of 28.9142 on 1 procs for 1000 steps with 18768 atoms, finish time Wed Nov 24 16:05:51 2021


Pair  time (%) = 21.6301 (74.8077)
Neigh time (%) = 0.733162 (2.53565)
Comm  time (%) = 0.00401784 (0.0138957)
Outpt time (%) = 0.789302 (2.72981)
Other time (%) = 5.75766 (19.9129)

Nlocal:    18768 ave 18768 max 18768 min
Histogram: 1 0 0 0 0 0 0 0 0 0
Nghost:    0 ave 0 max 0 min
Histogram: 1 0 0 0 0 0 0 0 0 0
Neighs:    833071 ave 833071 max 833071 min
Histogram: 1 0 0 0 0 0 0 0 0 0

Total # of neighbors = 833071
Ave neighs/atom = 44.3878
Neighbor list builds = 18
Dangerous builds = 0
print 'KINETIC ENERGY = ${ec} and parameters = (${poisson}, ${CoF}, ${CoRest}, ${CoRF})'
KINETIC ENERGY = 0.0350396877353944 and parameters = (0.175383762403457, 0.348010506435711, 0.0501, 1)


if "${ec} < 1e-5" then "jump in.15_angle_end" else "jump in.14_angle_emptying"
jump in.14_angle_emptying
print 'FORMING THE ANGLE OF REPOSE'
FORMING THE ANGLE OF REPOSE

run	1000 every 1000 "print 'KINETIC ENERGY = ${ec} and parameters = (${poisson}, ${CoF}, ${CoRest}, ${CoRF})'"
Setting up run at Wed Nov 24 16:05:51 2021

Memory usage per processor = 81.8874 Mbytes
    Step    Atoms         KinEng              1         Volume 
   24001    18768    0.035039688  0.00016201564      0.0385361 
WARNING: time-step is 20.217870 % of rayleigh time (../fix_check_timestep_gran.cpp:200)
   25000    18768    0.032815402  0.00016015801      0.0385361 
   25001    18768    0.032826625  0.00016320261      0.0385361 
Loop time of 30.1922 on 1 procs for 1000 steps with 18768 atoms, finish time Wed Nov 24 16:06:21 2021


Pair  time (%) = 22.8198 (75.5817)
Neigh time (%) = 0.725125 (2.40169)
Comm  time (%) = 0.00388412 (0.0128646)
Outpt time (%) = 0.689616 (2.28408)
Other time (%) = 5.95381 (19.7197)

Nlocal:    18768 ave 18768 max 18768 min
Histogram: 1 0 0 0 0 0 0 0 0 0
Nghost:    0 ave 0 max 0 min
Histogram: 1 0 0 0 0 0 0 0 0 0
Neighs:    834407 ave 834407 max 834407 min
Histogram: 1 0 0 0 0 0 0 0 0 0

Total # of neighbors = 834407
Ave neighs/atom = 44.459
Neighbor list builds = 17
Dangerous builds = 0
print 'KINETIC ENERGY = ${ec} and parameters = (${poisson}, ${CoF}, ${CoRest}, ${CoRF})'
KINETIC ENERGY = 0.0328266248069074 and parameters = (0.175383762403457, 0.348010506435711, 0.0501, 1)


if "${ec} < 1e-5" then "jump in.15_angle_end" else "jump in.14_angle_emptying"
jump in.14_angle_emptying
print 'FORMING THE ANGLE OF REPOSE'
FORMING THE ANGLE OF REPOSE

run	1000 every 1000 "print 'KINETIC ENERGY = ${ec} and parameters = (${poisson}, ${CoF}, ${CoRest}, ${CoRF})'"
Setting up run at Wed Nov 24 16:06:21 2021

Memory usage per processor = 81.8874 Mbytes
    Step    Atoms         KinEng              1         Volume 
   25001    18768    0.032826625  0.00016320261      0.0385361 
WARNING: time-step is 20.217870 % of rayleigh time (../fix_check_timestep_gran.cpp:200)
   26000    18768    0.036642331  0.00013400967      0.0385361 
   26001    18768    0.036640435   0.0001345312      0.0385361 
Loop time of 30.809 on 1 procs for 1000 steps with 18768 atoms, finish time Wed Nov 24 16:06:52 2021


Pair  time (%) = 23.1828 (75.2468)
Neigh time (%) = 0.755122 (2.45098)
Comm  time (%) = 0.00407951 (0.0132413)
Outpt time (%) = 0.799058 (2.59359)
Other time (%) = 6.06796 (19.6954)

Nlocal:    18768 ave 18768 max 18768 min
Histogram: 1 0 0 0 0 0 0 0 0 0
Nghost:    0 ave 0 max 0 min
Histogram: 1 0 0 0 0 0 0 0 0 0
Neighs:    831618 ave 831618 max 831618 min
Histogram: 1 0 0 0 0 0 0 0 0 0

Total # of neighbors = 831618
Ave neighs/atom = 44.3104
Neighbor list builds = 17
Dangerous builds = 0
print 'KINETIC ENERGY = ${ec} and parameters = (${poisson}, ${CoF}, ${CoRest}, ${CoRF})'
KINETIC ENERGY = 0.0366404348209598 and parameters = (0.175383762403457, 0.348010506435711, 0.0501, 1)


if "${ec} < 1e-5" then "jump in.15_angle_end" else "jump in.14_angle_emptying"
jump in.14_angle_emptying
print 'FORMING THE ANGLE OF REPOSE'
FORMING THE ANGLE OF REPOSE

run	1000 every 1000 "print 'KINETIC ENERGY = ${ec} and parameters = (${poisson}, ${CoF}, ${CoRest}, ${CoRF})'"
Setting up run at Wed Nov 24 16:06:52 2021

Memory usage per processor = 81.8874 Mbytes
    Step    Atoms         KinEng              1         Volume 
   26001    18768    0.036640435   0.0001345312      0.0385361 
WARNING: time-step is 20.217870 % of rayleigh time (../fix_check_timestep_gran.cpp:200)
   27000    18768    0.036857255  0.00016410533      0.0385361 
   27001    18768    0.036860567  0.00016276719      0.0385361 
Loop time of 31.1307 on 1 procs for 1000 steps with 18768 atoms, finish time Wed Nov 24 16:07:23 2021


Pair  time (%) = 23.4657 (75.3782)
Neigh time (%) = 0.750792 (2.41174)
Comm  time (%) = 0.0040862 (0.013126)
Outpt time (%) = 0.791645 (2.54298)
Other time (%) = 6.11841 (19.654)

Nlocal:    18768 ave 18768 max 18768 min
Histogram: 1 0 0 0 0 0 0 0 0 0
Nghost:    0 ave 0 max 0 min
Histogram: 1 0 0 0 0 0 0 0 0 0
Neighs:    830779 ave 830779 max 830779 min
Histogram: 1 0 0 0 0 0 0 0 0 0

Total # of neighbors = 830779
Ave neighs/atom = 44.2657
Neighbor list builds = 17
Dangerous builds = 0
print 'KINETIC ENERGY = ${ec} and parameters = (${poisson}, ${CoF}, ${CoRest}, ${CoRF})'
KINETIC ENERGY = 0.0368605668130829 and parameters = (0.175383762403457, 0.348010506435711, 0.0501, 1)


if "${ec} < 1e-5" then "jump in.15_angle_end" else "jump in.14_angle_emptying"
jump in.14_angle_emptying
print 'FORMING THE ANGLE OF REPOSE'
FORMING THE ANGLE OF REPOSE

run	1000 every 1000 "print 'KINETIC ENERGY = ${ec} and parameters = (${poisson}, ${CoF}, ${CoRest}, ${CoRF})'"
Setting up run at Wed Nov 24 16:07:23 2021

Memory usage per processor = 81.8874 Mbytes
    Step    Atoms         KinEng              1         Volume 
   27001    18768    0.036860567  0.00016276719      0.0385361 
WARNING: time-step is 20.217870 % of rayleigh time (../fix_check_timestep_gran.cpp:200)
   28000    18768    0.034511358  0.00017304962      0.0385361 
   28001    18768    0.034506701  0.00017420444      0.0385361 
Loop time of 30.9489 on 1 procs for 1000 steps with 18768 atoms, finish time Wed Nov 24 16:07:54 2021


Pair  time (%) = 23.3205 (75.3516)
Neigh time (%) = 0.755787 (2.44205)
Comm  time (%) = 0.00404409 (0.013067)
Outpt time (%) = 0.796847 (2.57472)
Other time (%) = 6.07171 (19.6185)

Nlocal:    18768 ave 18768 max 18768 min
Histogram: 1 0 0 0 0 0 0 0 0 0
Nghost:    0 ave 0 max 0 min
Histogram: 1 0 0 0 0 0 0 0 0 0
Neighs:    827981 ave 827981 max 827981 min
Histogram: 1 0 0 0 0 0 0 0 0 0

Total # of neighbors = 827981
Ave neighs/atom = 44.1166
Neighbor list builds = 17
Dangerous builds = 0
print 'KINETIC ENERGY = ${ec} and parameters = (${poisson}, ${CoF}, ${CoRest}, ${CoRF})'
KINETIC ENERGY = 0.034506700745827 and parameters = (0.175383762403457, 0.348010506435711, 0.0501, 1)


if "${ec} < 1e-5" then "jump in.15_angle_end" else "jump in.14_angle_emptying"
jump in.14_angle_emptying
print 'FORMING THE ANGLE OF REPOSE'
FORMING THE ANGLE OF REPOSE

run	1000 every 1000 "print 'KINETIC ENERGY = ${ec} and parameters = (${poisson}, ${CoF}, ${CoRest}, ${CoRF})'"
Setting up run at Wed Nov 24 16:07:54 2021

Memory usage per processor = 81.8874 Mbytes
    Step    Atoms         KinEng              1         Volume 
   28001    18768    0.034506701  0.00017420444      0.0385361 
WARNING: time-step is 20.217870 % of rayleigh time (../fix_check_timestep_gran.cpp:200)
   29000    18768    0.034768343  0.00017549851      0.0385361 
   29001    18768    0.034765797  0.00017665423      0.0385361 
Loop time of 28.7795 on 1 procs for 1000 steps with 18768 atoms, finish time Wed Nov 24 16:08:23 2021


Pair  time (%) = 21.6027 (75.0629)
Neigh time (%) = 0.692649 (2.40674)
Comm  time (%) = 0.00391013 (0.0135865)
Outpt time (%) = 0.792664 (2.75427)
Other time (%) = 5.68753 (19.7625)

Nlocal:    18768 ave 18768 max 18768 min
Histogram: 1 0 0 0 0 0 0 0 0 0
Nghost:    0 ave 0 max 0 min
Histogram: 1 0 0 0 0 0 0 0 0 0
Neighs:    825663 ave 825663 max 825663 min
Histogram: 1 0 0 0 0 0 0 0 0 0

Total # of neighbors = 825663
Ave neighs/atom = 43.9931
Neighbor list builds = 17
Dangerous builds = 0
print 'KINETIC ENERGY = ${ec} and parameters = (${poisson}, ${CoF}, ${CoRest}, ${CoRF})'
KINETIC ENERGY = 0.034765797081165 and parameters = (0.175383762403457, 0.348010506435711, 0.0501, 1)


if "${ec} < 1e-5" then "jump in.15_angle_end" else "jump in.14_angle_emptying"
jump in.14_angle_emptying
print 'FORMING THE ANGLE OF REPOSE'
FORMING THE ANGLE OF REPOSE

run	1000 every 1000 "print 'KINETIC ENERGY = ${ec} and parameters = (${poisson}, ${CoF}, ${CoRest}, ${CoRF})'"
Setting up run at Wed Nov 24 16:08:23 2021

Memory usage per processor = 81.8874 Mbytes
    Step    Atoms         KinEng              1         Volume 
   29001    18768    0.034765797  0.00017665423      0.0385361 
WARNING: time-step is 20.217870 % of rayleigh time (../fix_check_timestep_gran.cpp:200)
   30000    18768    0.030512307   0.0001616654      0.0385361 
   30001    18768    0.030509356  0.00016309312      0.0385361 
Loop time of 31.2625 on 1 procs for 1000 steps with 18768 atoms, finish time Wed Nov 24 16:08:55 2021


Pair  time (%) = 23.5858 (75.4445)
Neigh time (%) = 0.776736 (2.48456)
Comm  time (%) = 0.00439422 (0.0140559)
Outpt time (%) = 0.793939 (2.53959)
Other time (%) = 6.10159 (19.5173)

Nlocal:    18768 ave 18768 max 18768 min
Histogram: 1 0 0 0 0 0 0 0 0 0
Nghost:    0 ave 0 max 0 min
Histogram: 1 0 0 0 0 0 0 0 0 0
Neighs:    827333 ave 827333 max 827333 min
Histogram: 1 0 0 0 0 0 0 0 0 0

Total # of neighbors = 827333
Ave neighs/atom = 44.0821
Neighbor list builds = 17
Dangerous builds = 0
print 'KINETIC ENERGY = ${ec} and parameters = (${poisson}, ${CoF}, ${CoRest}, ${CoRF})'
KINETIC ENERGY = 0.0305093562236502 and parameters = (0.175383762403457, 0.348010506435711, 0.0501, 1)


if "${ec} < 1e-5" then "jump in.15_angle_end" else "jump in.14_angle_emptying"
jump in.14_angle_emptying
print 'FORMING THE ANGLE OF REPOSE'
FORMING THE ANGLE OF REPOSE

run	1000 every 1000 "print 'KINETIC ENERGY = ${ec} and parameters = (${poisson}, ${CoF}, ${CoRest}, ${CoRF})'"
Setting up run at Wed Nov 24 16:08:55 2021

Memory usage per processor = 81.8874 Mbytes
    Step    Atoms         KinEng              1         Volume 
   30001    18768    0.030509356  0.00016309312      0.0385361 
WARNING: time-step is 20.217870 % of rayleigh time (../fix_check_timestep_gran.cpp:200)
   31000    18768    0.033049931  0.00014957278      0.0385361 
   31001    18768    0.033050059  0.00014979159      0.0385361 
Loop time of 31.7053 on 1 procs for 1000 steps with 18768 atoms, finish time Wed Nov 24 16:09:26 2021


Pair  time (%) = 24.0943 (75.9945)
Neigh time (%) = 0.778296 (2.45479)
Comm  time (%) = 0.0040939 (0.0129124)
Outpt time (%) = 0.685613 (2.16246)
Other time (%) = 6.14299 (19.3753)

Nlocal:    18768 ave 18768 max 18768 min
Histogram: 1 0 0 0 0 0 0 0 0 0
Nghost:    0 ave 0 max 0 min
Histogram: 1 0 0 0 0 0 0 0 0 0
Neighs:    826049 ave 826049 max 826049 min
Histogram: 1 0 0 0 0 0 0 0 0 0

Total # of neighbors = 826049
Ave neighs/atom = 44.0137
Neighbor list builds = 17
Dangerous builds = 0
print 'KINETIC ENERGY = ${ec} and parameters = (${poisson}, ${CoF}, ${CoRest}, ${CoRF})'
KINETIC ENERGY = 0.0330500585953105 and parameters = (0.175383762403457, 0.348010506435711, 0.0501, 1)


if "${ec} < 1e-5" then "jump in.15_angle_end" else "jump in.14_angle_emptying"
jump in.14_angle_emptying
print 'FORMING THE ANGLE OF REPOSE'
FORMING THE ANGLE OF REPOSE

run	1000 every 1000 "print 'KINETIC ENERGY = ${ec} and parameters = (${poisson}, ${CoF}, ${CoRest}, ${CoRF})'"
Setting up run at Wed Nov 24 16:09:26 2021

Memory usage per processor = 81.8874 Mbytes
    Step    Atoms         KinEng              1         Volume 
   31001    18768    0.033050059  0.00014979159      0.0385361 
WARNING: time-step is 20.217870 % of rayleigh time (../fix_check_timestep_gran.cpp:200)
   32000    18768    0.033110792  0.00015636552      0.0385361 
   32001    18768    0.033106868  0.00015543303      0.0385361 
Loop time of 30.4183 on 1 procs for 1000 steps with 18768 atoms, finish time Wed Nov 24 16:09:57 2021


Pair  time (%) = 23.0558 (75.7957)
Neigh time (%) = 0.68276 (2.24457)
Comm  time (%) = 0.00379796 (0.0124858)
Outpt time (%) = 0.789932 (2.5969)
Other time (%) = 5.88604 (19.3503)

Nlocal:    18768 ave 18768 max 18768 min
Histogram: 1 0 0 0 0 0 0 0 0 0
Nghost:    0 ave 0 max 0 min
Histogram: 1 0 0 0 0 0 0 0 0 0
Neighs:    826735 ave 826735 max 826735 min
Histogram: 1 0 0 0 0 0 0 0 0 0

Total # of neighbors = 826735
Ave neighs/atom = 44.0502
Neighbor list builds = 16
Dangerous builds = 0
print 'KINETIC ENERGY = ${ec} and parameters = (${poisson}, ${CoF}, ${CoRest}, ${CoRF})'
KINETIC ENERGY = 0.0331068681061179 and parameters = (0.175383762403457, 0.348010506435711, 0.0501, 1)


if "${ec} < 1e-5" then "jump in.15_angle_end" else "jump in.14_angle_emptying"
jump in.14_angle_emptying
print 'FORMING THE ANGLE OF REPOSE'
FORMING THE ANGLE OF REPOSE

run	1000 every 1000 "print 'KINETIC ENERGY = ${ec} and parameters = (${poisson}, ${CoF}, ${CoRest}, ${CoRF})'"
Setting up run at Wed Nov 24 16:09:57 2021

Memory usage per processor = 81.8874 Mbytes
    Step    Atoms         KinEng              1         Volume 
   32001    18768    0.033106868  0.00015543303      0.0385361 
WARNING: time-step is 20.217870 % of rayleigh time (../fix_check_timestep_gran.cpp:200)
   33000    18768    0.032581348   0.0001446447      0.0385361 
   33001    18768    0.032582237    0.000145127      0.0385361 
Loop time of 30.4909 on 1 procs for 1000 steps with 18768 atoms, finish time Wed Nov 24 16:10:28 2021


Pair  time (%) = 23.0713 (75.6663)
Neigh time (%) = 0.717824 (2.35423)
Comm  time (%) = 0.00917156 (0.0300797)
Outpt time (%) = 0.793245 (2.60158)
Other time (%) = 5.89931 (19.3478)

Nlocal:    18768 ave 18768 max 18768 min
Histogram: 1 0 0 0 0 0 0 0 0 0
Nghost:    0 ave 0 max 0 min
Histogram: 1 0 0 0 0 0 0 0 0 0
Neighs:    825208 ave 825208 max 825208 min
Histogram: 1 0 0 0 0 0 0 0 0 0

Total # of neighbors = 825208
Ave neighs/atom = 43.9689
Neighbor list builds = 17
Dangerous builds = 0
print 'KINETIC ENERGY = ${ec} and parameters = (${poisson}, ${CoF}, ${CoRest}, ${CoRF})'
KINETIC ENERGY = 0.0325822370933971 and parameters = (0.175383762403457, 0.348010506435711, 0.0501, 1)


if "${ec} < 1e-5" then "jump in.15_angle_end" else "jump in.14_angle_emptying"
jump in.14_angle_emptying
print 'FORMING THE ANGLE OF REPOSE'
FORMING THE ANGLE OF REPOSE

run	1000 every 1000 "print 'KINETIC ENERGY = ${ec} and parameters = (${poisson}, ${CoF}, ${CoRest}, ${CoRF})'"
Setting up run at Wed Nov 24 16:10:28 2021

Memory usage per processor = 81.8874 Mbytes
    Step    Atoms         KinEng              1         Volume 
   33001    18768    0.032582237    0.000145127      0.0385361 
WARNING: time-step is 20.217870 % of rayleigh time (../fix_check_timestep_gran.cpp:200)
   34000    18768    0.030591833  0.00014307931      0.0385361 
   34001    18768    0.030599968  0.00014253725      0.0385361 
Loop time of 30.7771 on 1 procs for 1000 steps with 18768 atoms, finish time Wed Nov 24 16:10:59 2021


Pair  time (%) = 23.334 (75.8162)
Neigh time (%) = 0.71373 (2.31903)
Comm  time (%) = 0.00393135 (0.0127736)
Outpt time (%) = 0.788796 (2.56293)
Other time (%) = 5.93661 (19.2891)

Nlocal:    18768 ave 18768 max 18768 min
Histogram: 1 0 0 0 0 0 0 0 0 0
Nghost:    0 ave 0 max 0 min
Histogram: 1 0 0 0 0 0 0 0 0 0
Neighs:    823872 ave 823872 max 823872 min
Histogram: 1 0 0 0 0 0 0 0 0 0

Total # of neighbors = 823872
Ave neighs/atom = 43.8977
Neighbor list builds = 16
Dangerous builds = 0
print 'KINETIC ENERGY = ${ec} and parameters = (${poisson}, ${CoF}, ${CoRest}, ${CoRF})'
KINETIC ENERGY = 0.0305999684259572 and parameters = (0.175383762403457, 0.348010506435711, 0.0501, 1)


if "${ec} < 1e-5" then "jump in.15_angle_end" else "jump in.14_angle_emptying"
jump in.14_angle_emptying
print 'FORMING THE ANGLE OF REPOSE'
FORMING THE ANGLE OF REPOSE

run	1000 every 1000 "print 'KINETIC ENERGY = ${ec} and parameters = (${poisson}, ${CoF}, ${CoRest}, ${CoRF})'"
Setting up run at Wed Nov 24 16:10:59 2021

Memory usage per processor = 81.8874 Mbytes
    Step    Atoms         KinEng              1         Volume 
   34001    18768    0.030599968  0.00014253725      0.0385361 
WARNING: time-step is 20.217870 % of rayleigh time (../fix_check_timestep_gran.cpp:200)
   35000    18768    0.033178554  0.00015554246      0.0385361 
   35001    18768    0.033177865  0.00015427222      0.0385361 
Loop time of 32.0789 on 1 procs for 1000 steps with 18768 atoms, finish time Wed Nov 24 16:11:31 2021


Pair  time (%) = 24.4093 (76.0915)
Neigh time (%) = 0.735068 (2.29144)
Comm  time (%) = 0.00394619 (0.0123015)
Outpt time (%) = 0.78741 (2.45461)
Other time (%) = 6.14314 (19.1501)

Nlocal:    18768 ave 18768 max 18768 min
Histogram: 1 0 0 0 0 0 0 0 0 0
Nghost:    0 ave 0 max 0 min
Histogram: 1 0 0 0 0 0 0 0 0 0
Neighs:    823598 ave 823598 max 823598 min
Histogram: 1 0 0 0 0 0 0 0 0 0

Total # of neighbors = 823598
Ave neighs/atom = 43.8831
Neighbor list builds = 16
Dangerous builds = 0
print 'KINETIC ENERGY = ${ec} and parameters = (${poisson}, ${CoF}, ${CoRest}, ${CoRF})'
KINETIC ENERGY = 0.0331778648966471 and parameters = (0.175383762403457, 0.348010506435711, 0.0501, 1)


if "${ec} < 1e-5" then "jump in.15_angle_end" else "jump in.14_angle_emptying"
jump in.14_angle_emptying
print 'FORMING THE ANGLE OF REPOSE'
FORMING THE ANGLE OF REPOSE

run	1000 every 1000 "print 'KINETIC ENERGY = ${ec} and parameters = (${poisson}, ${CoF}, ${CoRest}, ${CoRF})'"
Setting up run at Wed Nov 24 16:11:31 2021

Memory usage per processor = 81.8874 Mbytes
    Step    Atoms         KinEng              1         Volume 
   35001    18768    0.033177865  0.00015427222      0.0385361 
WARNING: time-step is 20.217870 % of rayleigh time (../fix_check_timestep_gran.cpp:200)
   36000    18768    0.034005655  0.00016071221      0.0385361 
   36001    18768    0.034001948  0.00016138684      0.0385361 
Loop time of 30.6017 on 1 procs for 1000 steps with 18768 atoms, finish time Wed Nov 24 16:12:02 2021


Pair  time (%) = 23.2498 (75.9754)
Neigh time (%) = 0.682768 (2.23115)
Comm  time (%) = 0.00389202 (0.0127183)
Outpt time (%) = 0.790965 (2.58471)
Other time (%) = 5.8743 (19.196)

Nlocal:    18768 ave 18768 max 18768 min
Histogram: 1 0 0 0 0 0 0 0 0 0
Nghost:    0 ave 0 max 0 min
Histogram: 1 0 0 0 0 0 0 0 0 0
Neighs:    824653 ave 824653 max 824653 min
Histogram: 1 0 0 0 0 0 0 0 0 0

Total # of neighbors = 824653
Ave neighs/atom = 43.9393
Neighbor list builds = 16
Dangerous builds = 0
print 'KINETIC ENERGY = ${ec} and parameters = (${poisson}, ${CoF}, ${CoRest}, ${CoRF})'
KINETIC ENERGY = 0.0340019475084213 and parameters = (0.175383762403457, 0.348010506435711, 0.0501, 1)


if "${ec} < 1e-5" then "jump in.15_angle_end" else "jump in.14_angle_emptying"
jump in.14_angle_emptying
print 'FORMING THE ANGLE OF REPOSE'
FORMING THE ANGLE OF REPOSE

run	1000 every 1000 "print 'KINETIC ENERGY = ${ec} and parameters = (${poisson}, ${CoF}, ${CoRest}, ${CoRF})'"
Setting up run at Wed Nov 24 16:12:02 2021

Memory usage per processor = 81.8874 Mbytes
    Step    Atoms         KinEng              1         Volume 
   36001    18768    0.034001948  0.00016138684      0.0385361 
WARNING: time-step is 20.217870 % of rayleigh time (../fix_check_timestep_gran.cpp:200)
   37000    18768    0.030825518  0.00014382011      0.0385361 
   37001    18768    0.030814282  0.00014435828      0.0385361 
Loop time of 30.5743 on 1 procs for 1000 steps with 18768 atoms, finish time Wed Nov 24 16:12:32 2021


Pair  time (%) = 23.2322 (75.9861)
Neigh time (%) = 0.712576 (2.33063)
Comm  time (%) = 0.00384438 (0.0125739)
Outpt time (%) = 0.792282 (2.59133)
Other time (%) = 5.8334 (19.0794)

Nlocal:    18768 ave 18768 max 18768 min
Histogram: 1 0 0 0 0 0 0 0 0 0
Nghost:    0 ave 0 max 0 min
Histogram: 1 0 0 0 0 0 0 0 0 0
Neighs:    823446 ave 823446 max 823446 min
Histogram: 1 0 0 0 0 0 0 0 0 0

Total # of neighbors = 823446
Ave neighs/atom = 43.875
Neighbor list builds = 16
Dangerous builds = 0
print 'KINETIC ENERGY = ${ec} and parameters = (${poisson}, ${CoF}, ${CoRest}, ${CoRF})'
KINETIC ENERGY = 0.0308142824391211 and parameters = (0.175383762403457, 0.348010506435711, 0.0501, 1)


if "${ec} < 1e-5" then "jump in.15_angle_end" else "jump in.14_angle_emptying"
jump in.14_angle_emptying
print 'FORMING THE ANGLE OF REPOSE'
FORMING THE ANGLE OF REPOSE

run	1000 every 1000 "print 'KINETIC ENERGY = ${ec} and parameters = (${poisson}, ${CoF}, ${CoRest}, ${CoRF})'"
Setting up run at Wed Nov 24 16:12:32 2021

Memory usage per processor = 81.8874 Mbytes
    Step    Atoms         KinEng              1         Volume 
   37001    18768    0.030814282  0.00014435828      0.0385361 
WARNING: time-step is 20.217870 % of rayleigh time (../fix_check_timestep_gran.cpp:200)
   38000    18768    0.029335708  0.00015067858      0.0385361 
   38001    18768    0.029333438  0.00014909938      0.0385361 
Loop time of 31.4042 on 1 procs for 1000 steps with 18768 atoms, finish time Wed Nov 24 16:13:04 2021


Pair  time (%) = 23.8202 (75.8503)
Neigh time (%) = 0.737922 (2.34976)
Comm  time (%) = 0.00397872 (0.0126694)
Outpt time (%) = 0.891256 (2.83801)
Other time (%) = 5.95086 (18.9492)

Nlocal:    18768 ave 18768 max 18768 min
Histogram: 1 0 0 0 0 0 0 0 0 0
Nghost:    0 ave 0 max 0 min
Histogram: 1 0 0 0 0 0 0 0 0 0
Neighs:    822709 ave 822709 max 822709 min
Histogram: 1 0 0 0 0 0 0 0 0 0

Total # of neighbors = 822709
Ave neighs/atom = 43.8357
Neighbor list builds = 16
Dangerous builds = 0
print 'KINETIC ENERGY = ${ec} and parameters = (${poisson}, ${CoF}, ${CoRest}, ${CoRF})'
KINETIC ENERGY = 0.0293334379175142 and parameters = (0.175383762403457, 0.348010506435711, 0.0501, 1)


if "${ec} < 1e-5" then "jump in.15_angle_end" else "jump in.14_angle_emptying"
jump in.14_angle_emptying
print 'FORMING THE ANGLE OF REPOSE'
FORMING THE ANGLE OF REPOSE

run	1000 every 1000 "print 'KINETIC ENERGY = ${ec} and parameters = (${poisson}, ${CoF}, ${CoRest}, ${CoRF})'"
Setting up run at Wed Nov 24 16:13:04 2021

Memory usage per processor = 81.8874 Mbytes
    Step    Atoms         KinEng              1         Volume 
   38001    18768    0.029333438  0.00014909938      0.0385361 
WARNING: time-step is 20.217870 % of rayleigh time (../fix_check_timestep_gran.cpp:200)
   39000    18768    0.030311783  0.00014020072      0.0385361 
   39001    18768    0.030319841  0.00014106332      0.0385361 
Loop time of 32.5698 on 1 procs for 1000 steps with 18768 atoms, finish time Wed Nov 24 16:13:37 2021


Pair  time (%) = 24.8436 (76.2779)
Neigh time (%) = 0.771575 (2.36899)
Comm  time (%) = 0.00428774 (0.0131648)
Outpt time (%) = 0.791949 (2.43154)
Other time (%) = 6.15843 (18.9084)

Nlocal:    18768 ave 18768 max 18768 min
Histogram: 1 0 0 0 0 0 0 0 0 0
Nghost:    0 ave 0 max 0 min
Histogram: 1 0 0 0 0 0 0 0 0 0
Neighs:    823312 ave 823312 max 823312 min
Histogram: 1 0 0 0 0 0 0 0 0 0

Total # of neighbors = 823312
Ave neighs/atom = 43.8679
Neighbor list builds = 16
Dangerous builds = 0
print 'KINETIC ENERGY = ${ec} and parameters = (${poisson}, ${CoF}, ${CoRest}, ${CoRF})'
KINETIC ENERGY = 0.0303198407258461 and parameters = (0.175383762403457, 0.348010506435711, 0.0501, 1)


if "${ec} < 1e-5" then "jump in.15_angle_end" else "jump in.14_angle_emptying"
jump in.14_angle_emptying
print 'FORMING THE ANGLE OF REPOSE'
FORMING THE ANGLE OF REPOSE

run	1000 every 1000 "print 'KINETIC ENERGY = ${ec} and parameters = (${poisson}, ${CoF}, ${CoRest}, ${CoRF})'"
Setting up run at Wed Nov 24 16:13:37 2021

Memory usage per processor = 81.8874 Mbytes
    Step    Atoms         KinEng              1         Volume 
   39001    18768    0.030319841  0.00014106332      0.0385361 
WARNING: time-step is 20.217870 % of rayleigh time (../fix_check_timestep_gran.cpp:200)
   40000    18768    0.030481682  0.00011968895      0.0385361 
   40001    18768    0.030490391  0.00011842831      0.0385361 
Loop time of 30.5779 on 1 procs for 1000 steps with 18768 atoms, finish time Wed Nov 24 16:14:07 2021


Pair  time (%) = 23.2803 (76.1345)
Neigh time (%) = 0.707893 (2.31505)
Comm  time (%) = 0.00397068 (0.0129855)
Outpt time (%) = 0.794997 (2.59991)
Other time (%) = 5.79071 (18.9376)

Nlocal:    18768 ave 18768 max 18768 min
Histogram: 1 0 0 0 0 0 0 0 0 0
Nghost:    0 ave 0 max 0 min
Histogram: 1 0 0 0 0 0 0 0 0 0
Neighs:    822748 ave 822748 max 822748 min
Histogram: 1 0 0 0 0 0 0 0 0 0

Total # of neighbors = 822748
Ave neighs/atom = 43.8378
Neighbor list builds = 16
Dangerous builds = 0
print 'KINETIC ENERGY = ${ec} and parameters = (${poisson}, ${CoF}, ${CoRest}, ${CoRF})'
KINETIC ENERGY = 0.0304903910123396 and parameters = (0.175383762403457, 0.348010506435711, 0.0501, 1)


if "${ec} < 1e-5" then "jump in.15_angle_end" else "jump in.14_angle_emptying"
jump in.14_angle_emptying
print 'FORMING THE ANGLE OF REPOSE'
FORMING THE ANGLE OF REPOSE

run	1000 every 1000 "print 'KINETIC ENERGY = ${ec} and parameters = (${poisson}, ${CoF}, ${CoRest}, ${CoRF})'"
Setting up run at Wed Nov 24 16:14:07 2021

Memory usage per processor = 81.8874 Mbytes
    Step    Atoms         KinEng              1         Volume 
   40001    18768    0.030490391  0.00011842831      0.0385361 
WARNING: time-step is 20.217870 % of rayleigh time (../fix_check_timestep_gran.cpp:200)
   41000    18767    0.028696289  0.00013086255      0.0385361 
   41001    18767    0.028702048  0.00013098034      0.0385361 
Loop time of 31.6108 on 1 procs for 1000 steps with 18767 atoms, finish time Wed Nov 24 16:14:39 2021


Pair  time (%) = 24.071 (76.148)
Neigh time (%) = 0.766522 (2.42487)
Comm  time (%) = 0.00392433 (0.0124145)
Outpt time (%) = 0.88498 (2.79961)
Other time (%) = 5.88439 (18.6151)

Nlocal:    18767 ave 18767 max 18767 min
Histogram: 1 0 0 0 0 0 0 0 0 0
Nghost:    0 ave 0 max 0 min
Histogram: 1 0 0 0 0 0 0 0 0 0
Neighs:    821314 ave 821314 max 821314 min
Histogram: 1 0 0 0 0 0 0 0 0 0

Total # of neighbors = 821314
Ave neighs/atom = 43.7637
Neighbor list builds = 16
Dangerous builds = 0
print 'KINETIC ENERGY = ${ec} and parameters = (${poisson}, ${CoF}, ${CoRest}, ${CoRF})'
KINETIC ENERGY = 0.028702047731051 and parameters = (0.175383762403457, 0.348010506435711, 0.0501, 1)


if "${ec} < 1e-5" then "jump in.15_angle_end" else "jump in.14_angle_emptying"
jump in.14_angle_emptying
print 'FORMING THE ANGLE OF REPOSE'
FORMING THE ANGLE OF REPOSE

run	1000 every 1000 "print 'KINETIC ENERGY = ${ec} and parameters = (${poisson}, ${CoF}, ${CoRest}, ${CoRF})'"
Setting up run at Wed Nov 24 16:14:39 2021

Memory usage per processor = 81.8874 Mbytes
    Step    Atoms         KinEng              1         Volume 
   41001    18767    0.028702048  0.00013098034      0.0385361 
WARNING: time-step is 20.217870 % of rayleigh time (../fix_check_timestep_gran.cpp:200)
   42000    18767     0.02878477  0.00013470999      0.0385361 
   42001    18767    0.028779892  0.00013408242      0.0385361 
Loop time of 31.4792 on 1 procs for 1000 steps with 18767 atoms, finish time Wed Nov 24 16:15:11 2021


Pair  time (%) = 24.105 (76.5745)
Neigh time (%) = 0.730196 (2.31962)
Comm  time (%) = 0.00403689 (0.012824)
Outpt time (%) = 0.794659 (2.5244)
Other time (%) = 5.84525 (18.5686)

Nlocal:    18767 ave 18767 max 18767 min
Histogram: 1 0 0 0 0 0 0 0 0 0
Nghost:    0 ave 0 max 0 min
Histogram: 1 0 0 0 0 0 0 0 0 0
Neighs:    821873 ave 821873 max 821873 min
Histogram: 1 0 0 0 0 0 0 0 0 0

Total # of neighbors = 821873
Ave neighs/atom = 43.7935
Neighbor list builds = 16
Dangerous builds = 0
print 'KINETIC ENERGY = ${ec} and parameters = (${poisson}, ${CoF}, ${CoRest}, ${CoRF})'
KINETIC ENERGY = 0.0287798916854717 and parameters = (0.175383762403457, 0.348010506435711, 0.0501, 1)


if "${ec} < 1e-5" then "jump in.15_angle_end" else "jump in.14_angle_emptying"
jump in.14_angle_emptying
print 'FORMING THE ANGLE OF REPOSE'
FORMING THE ANGLE OF REPOSE

run	1000 every 1000 "print 'KINETIC ENERGY = ${ec} and parameters = (${poisson}, ${CoF}, ${CoRest}, ${CoRF})'"
Setting up run at Wed Nov 24 16:15:11 2021

Memory usage per processor = 81.8874 Mbytes
    Step    Atoms         KinEng              1         Volume 
   42001    18767    0.028779892  0.00013408242      0.0385361 
WARNING: time-step is 20.217870 % of rayleigh time (../fix_check_timestep_gran.cpp:200)
   43000    18767    0.027620038  0.00012774506      0.0385361 
   43001    18767    0.027619594  0.00012558931      0.0385361 
Loop time of 29.9933 on 1 procs for 1000 steps with 18767 atoms, finish time Wed Nov 24 16:15:41 2021


Pair  time (%) = 22.9009 (76.3534)
Neigh time (%) = 0.701931 (2.34029)
Comm  time (%) = 0.00382352 (0.0127479)
Outpt time (%) = 0.791377 (2.63851)
Other time (%) = 5.59528 (18.6551)

Nlocal:    18767 ave 18767 max 18767 min
Histogram: 1 0 0 0 0 0 0 0 0 0
Nghost:    0 ave 0 max 0 min
Histogram: 1 0 0 0 0 0 0 0 0 0
Neighs:    821694 ave 821694 max 821694 min
Histogram: 1 0 0 0 0 0 0 0 0 0

Total # of neighbors = 821694
Ave neighs/atom = 43.784
Neighbor list builds = 16
Dangerous builds = 0
print 'KINETIC ENERGY = ${ec} and parameters = (${poisson}, ${CoF}, ${CoRest}, ${CoRF})'
KINETIC ENERGY = 0.0276195942062123 and parameters = (0.175383762403457, 0.348010506435711, 0.0501, 1)


if "${ec} < 1e-5" then "jump in.15_angle_end" else "jump in.14_angle_emptying"
jump in.14_angle_emptying
print 'FORMING THE ANGLE OF REPOSE'
FORMING THE ANGLE OF REPOSE

run	1000 every 1000 "print 'KINETIC ENERGY = ${ec} and parameters = (${poisson}, ${CoF}, ${CoRest}, ${CoRF})'"
Setting up run at Wed Nov 24 16:15:41 2021

Memory usage per processor = 81.8874 Mbytes
    Step    Atoms         KinEng              1         Volume 
   43001    18767    0.027619594  0.00012558931      0.0385361 
WARNING: time-step is 20.217870 % of rayleigh time (../fix_check_timestep_gran.cpp:200)
   44000    18766    0.027811646  0.00013797817      0.0385361 
   44001    18766    0.027804333  0.00013951235      0.0385361 
Loop time of 30.2385 on 1 procs for 1000 steps with 18766 atoms, finish time Wed Nov 24 16:16:11 2021


Pair  time (%) = 23.1737 (76.6365)
Neigh time (%) = 0.659432 (2.18077)
Comm  time (%) = 0.00388321 (0.0128419)
Outpt time (%) = 0.798188 (2.63964)
Other time (%) = 5.60328 (18.5303)

Nlocal:    18766 ave 18766 max 18766 min
Histogram: 1 0 0 0 0 0 0 0 0 0
Nghost:    0 ave 0 max 0 min
Histogram: 1 0 0 0 0 0 0 0 0 0
Neighs:    820297 ave 820297 max 820297 min
Histogram: 1 0 0 0 0 0 0 0 0 0

Total # of neighbors = 820297
Ave neighs/atom = 43.7119
Neighbor list builds = 15
Dangerous builds = 0
print 'KINETIC ENERGY = ${ec} and parameters = (${poisson}, ${CoF}, ${CoRest}, ${CoRF})'
KINETIC ENERGY = 0.0278043332633544 and parameters = (0.175383762403457, 0.348010506435711, 0.0501, 1)


if "${ec} < 1e-5" then "jump in.15_angle_end" else "jump in.14_angle_emptying"
jump in.14_angle_emptying
print 'FORMING THE ANGLE OF REPOSE'
FORMING THE ANGLE OF REPOSE

run	1000 every 1000 "print 'KINETIC ENERGY = ${ec} and parameters = (${poisson}, ${CoF}, ${CoRest}, ${CoRF})'"
Setting up run at Wed Nov 24 16:16:11 2021

Memory usage per processor = 81.8874 Mbytes
    Step    Atoms         KinEng              1         Volume 
   44001    18766    0.027804333  0.00013951235      0.0385361 
WARNING: time-step is 20.217870 % of rayleigh time (../fix_check_timestep_gran.cpp:200)
   45000    18766    0.029699968  0.00013894295      0.0385361 
   45001    18766    0.029695735  0.00013958834      0.0385361 
Loop time of 32.8861 on 1 procs for 1000 steps with 18766 atoms, finish time Wed Nov 24 16:16:44 2021


Pair  time (%) = 25.3201 (76.9933)
Neigh time (%) = 0.7156 (2.176)
Comm  time (%) = 0.00380782 (0.0115788)
Outpt time (%) = 0.795318 (2.4184)
Other time (%) = 6.05128 (18.4007)

Nlocal:    18766 ave 18766 max 18766 min
Histogram: 1 0 0 0 0 0 0 0 0 0
Nghost:    0 ave 0 max 0 min
Histogram: 1 0 0 0 0 0 0 0 0 0
Neighs:    819963 ave 819963 max 819963 min
Histogram: 1 0 0 0 0 0 0 0 0 0

Total # of neighbors = 819963
Ave neighs/atom = 43.6941
Neighbor list builds = 15
Dangerous builds = 0
print 'KINETIC ENERGY = ${ec} and parameters = (${poisson}, ${CoF}, ${CoRest}, ${CoRF})'
KINETIC ENERGY = 0.0296957346425898 and parameters = (0.175383762403457, 0.348010506435711, 0.0501, 1)


if "${ec} < 1e-5" then "jump in.15_angle_end" else "jump in.14_angle_emptying"
jump in.14_angle_emptying
print 'FORMING THE ANGLE OF REPOSE'
FORMING THE ANGLE OF REPOSE

run	1000 every 1000 "print 'KINETIC ENERGY = ${ec} and parameters = (${poisson}, ${CoF}, ${CoRest}, ${CoRF})'"
Setting up run at Wed Nov 24 16:16:44 2021

Memory usage per processor = 81.8874 Mbytes
    Step    Atoms         KinEng              1         Volume 
   45001    18766    0.029695735  0.00013958834      0.0385361 
WARNING: time-step is 20.217870 % of rayleigh time (../fix_check_timestep_gran.cpp:200)
   46000    18766    0.027630921  0.00013123953      0.0385361 
   46001    18766    0.027627505  0.00013188974      0.0385361 
Loop time of 30.605 on 1 procs for 1000 steps with 18766 atoms, finish time Wed Nov 24 16:17:15 2021


Pair  time (%) = 23.3664 (76.3484)
Neigh time (%) = 0.724304 (2.36662)
Comm  time (%) = 0.00381552 (0.012467)
Outpt time (%) = 0.887553 (2.90003)
Other time (%) = 5.62288 (18.3724)

Nlocal:    18766 ave 18766 max 18766 min
Histogram: 1 0 0 0 0 0 0 0 0 0
Nghost:    0 ave 0 max 0 min
Histogram: 1 0 0 0 0 0 0 0 0 0
Neighs:    819727 ave 819727 max 819727 min
Histogram: 1 0 0 0 0 0 0 0 0 0

Total # of neighbors = 819727
Ave neighs/atom = 43.6815
Neighbor list builds = 16
Dangerous builds = 0
print 'KINETIC ENERGY = ${ec} and parameters = (${poisson}, ${CoF}, ${CoRest}, ${CoRF})'
KINETIC ENERGY = 0.0276275049842396 and parameters = (0.175383762403457, 0.348010506435711, 0.0501, 1)


if "${ec} < 1e-5" then "jump in.15_angle_end" else "jump in.14_angle_emptying"
jump in.14_angle_emptying
print 'FORMING THE ANGLE OF REPOSE'
FORMING THE ANGLE OF REPOSE

run	1000 every 1000 "print 'KINETIC ENERGY = ${ec} and parameters = (${poisson}, ${CoF}, ${CoRest}, ${CoRF})'"
Setting up run at Wed Nov 24 16:17:15 2021

Memory usage per processor = 81.8874 Mbytes
    Step    Atoms         KinEng              1         Volume 
   46001    18766    0.027627505  0.00013188974      0.0385361 
WARNING: time-step is 20.217870 % of rayleigh time (../fix_check_timestep_gran.cpp:200)
   47000    18765    0.027899357  0.00014399357      0.0385361 
   47001    18765    0.027888091  0.00014463914      0.0385361 
Loop time of 32.6939 on 1 procs for 1000 steps with 18765 atoms, finish time Wed Nov 24 16:17:48 2021


Pair  time (%) = 25.2589 (77.2587)
Neigh time (%) = 0.713904 (2.1836)
Comm  time (%) = 0.00388353 (0.0118784)
Outpt time (%) = 0.795489 (2.43314)
Other time (%) = 5.92176 (18.1127)

Nlocal:    18765 ave 18765 max 18765 min
Histogram: 1 0 0 0 0 0 0 0 0 0
Nghost:    0 ave 0 max 0 min
Histogram: 1 0 0 0 0 0 0 0 0 0
Neighs:    821252 ave 821252 max 821252 min
Histogram: 1 0 0 0 0 0 0 0 0 0

Total # of neighbors = 821252
Ave neighs/atom = 43.7651
Neighbor list builds = 15
Dangerous builds = 0
print 'KINETIC ENERGY = ${ec} and parameters = (${poisson}, ${CoF}, ${CoRest}, ${CoRF})'
KINETIC ENERGY = 0.0278880909894085 and parameters = (0.175383762403457, 0.348010506435711, 0.0501, 1)


if "${ec} < 1e-5" then "jump in.15_angle_end" else "jump in.14_angle_emptying"
jump in.14_angle_emptying
print 'FORMING THE ANGLE OF REPOSE'
FORMING THE ANGLE OF REPOSE

run	1000 every 1000 "print 'KINETIC ENERGY = ${ec} and parameters = (${poisson}, ${CoF}, ${CoRest}, ${CoRF})'"
Setting up run at Wed Nov 24 16:17:48 2021

Memory usage per processor = 81.8874 Mbytes
    Step    Atoms         KinEng              1         Volume 
   47001    18765    0.027888091  0.00014463914      0.0385361 
WARNING: time-step is 20.217870 % of rayleigh time (../fix_check_timestep_gran.cpp:200)
   48000    18763    0.027524406  0.00013874135      0.0385361 
   48001    18763    0.027516819  0.00013961624      0.0385361 
Loop time of 29.7705 on 1 procs for 1000 steps with 18763 atoms, finish time Wed Nov 24 16:18:18 2021


Pair  time (%) = 22.8954 (76.9063)
Neigh time (%) = 0.657045 (2.20703)
Comm  time (%) = 0.00363861 (0.0122222)
Outpt time (%) = 0.797674 (2.67941)
Other time (%) = 5.41674 (18.195)

Nlocal:    18763 ave 18763 max 18763 min
Histogram: 1 0 0 0 0 0 0 0 0 0
Nghost:    0 ave 0 max 0 min
Histogram: 1 0 0 0 0 0 0 0 0 0
Neighs:    821404 ave 821404 max 821404 min
Histogram: 1 0 0 0 0 0 0 0 0 0

Total # of neighbors = 821404
Ave neighs/atom = 43.7779
Neighbor list builds = 15
Dangerous builds = 0
print 'KINETIC ENERGY = ${ec} and parameters = (${poisson}, ${CoF}, ${CoRest}, ${CoRF})'
KINETIC ENERGY = 0.0275168185607516 and parameters = (0.175383762403457, 0.348010506435711, 0.0501, 1)


if "${ec} < 1e-5" then "jump in.15_angle_end" else "jump in.14_angle_emptying"
jump in.14_angle_emptying
print 'FORMING THE ANGLE OF REPOSE'
FORMING THE ANGLE OF REPOSE

run	1000 every 1000 "print 'KINETIC ENERGY = ${ec} and parameters = (${poisson}, ${CoF}, ${CoRest}, ${CoRF})'"
Setting up run at Wed Nov 24 16:18:18 2021

Memory usage per processor = 81.8874 Mbytes
    Step    Atoms         KinEng              1         Volume 
   48001    18763    0.027516819  0.00013961624      0.0385361 
WARNING: time-step is 20.217870 % of rayleigh time (../fix_check_timestep_gran.cpp:200)
   49000    18763    0.027594009  0.00012872092      0.0385361 
   49001    18763    0.027593485  0.00012778087      0.0385361 
Loop time of 32.8434 on 1 procs for 1000 steps with 18763 atoms, finish time Wed Nov 24 16:18:51 2021


Pair  time (%) = 25.3665 (77.2346)
Neigh time (%) = 0.746392 (2.27258)
Comm  time (%) = 0.00401528 (0.0122255)
Outpt time (%) = 0.892186 (2.71648)
Other time (%) = 5.83434 (17.7641)

Nlocal:    18763 ave 18763 max 18763 min
Histogram: 1 0 0 0 0 0 0 0 0 0
Nghost:    0 ave 0 max 0 min
Histogram: 1 0 0 0 0 0 0 0 0 0
Neighs:    820750 ave 820750 max 820750 min
Histogram: 1 0 0 0 0 0 0 0 0 0

Total # of neighbors = 820750
Ave neighs/atom = 43.743
Neighbor list builds = 15
Dangerous builds = 0
print 'KINETIC ENERGY = ${ec} and parameters = (${poisson}, ${CoF}, ${CoRest}, ${CoRF})'
KINETIC ENERGY = 0.0275934846695726 and parameters = (0.175383762403457, 0.348010506435711, 0.0501, 1)


if "${ec} < 1e-5" then "jump in.15_angle_end" else "jump in.14_angle_emptying"
jump in.14_angle_emptying
print 'FORMING THE ANGLE OF REPOSE'
FORMING THE ANGLE OF REPOSE

run	1000 every 1000 "print 'KINETIC ENERGY = ${ec} and parameters = (${poisson}, ${CoF}, ${CoRest}, ${CoRF})'"
Setting up run at Wed Nov 24 16:18:51 2021

Memory usage per processor = 81.8874 Mbytes
    Step    Atoms         KinEng              1         Volume 
   49001    18763    0.027593485  0.00012778087      0.0385361 
WARNING: time-step is 20.217870 % of rayleigh time (../fix_check_timestep_gran.cpp:200)
   50000    18762    0.027023721  0.00014859581      0.0385361 
   50001    18762      0.0270229   0.0001468205      0.0385361 
Loop time of 29.8776 on 1 procs for 1000 steps with 18762 atoms, finish time Wed Nov 24 16:19:21 2021


Pair  time (%) = 23.1291 (77.4128)
Neigh time (%) = 0.662497 (2.21737)
Comm  time (%) = 0.00380159 (0.0127238)
Outpt time (%) = 0.699766 (2.3421)
Other time (%) = 5.38247 (18.0151)

Nlocal:    18762 ave 18762 max 18762 min
Histogram: 1 0 0 0 0 0 0 0 0 0
Nghost:    0 ave 0 max 0 min
Histogram: 1 0 0 0 0 0 0 0 0 0
[...]
Neigh time (%) = 0.127818 (0.583394)
Comm  time (%) = 0.00145797 (0.00665454)
Outpt time (%) = 0.525828 (2.40001)
Other time (%) = 1.97081 (8.99526)

Nlocal:    14656 ave 14656 max 14656 min
Histogram: 1 0 0 0 0 0 0 0 0 0
Nghost:    0 ave 0 max 0 min
Histogram: 1 0 0 0 0 0 0 0 0 0
Neighs:    745213 ave 745213 max 745213 min
Histogram: 1 0 0 0 0 0 0 0 0 0

Total # of neighbors = 745213
Ave neighs/atom = 50.847
Neighbor list builds = 4
Dangerous builds = 0
print 'KINETIC ENERGY = ${ec} and parameters = (${poisson}, ${CoF}, ${CoRest}, ${CoRF})'
KINETIC ENERGY = 6.76769380604361e-05 and parameters = (0.175383762403457, 0.348010506435711, 0.0501, 1)


if "${ec} < 1e-5" then "jump in.15_angle_end" else "jump in.14_angle_emptying"
jump in.14_angle_emptying
print 'FORMING THE ANGLE OF REPOSE'
FORMING THE ANGLE OF REPOSE

run	1000 every 1000 "print 'KINETIC ENERGY = ${ec} and parameters = (${poisson}, ${CoF}, ${CoRest}, ${CoRF})'"
Setting up run at Wed Nov 24 17:27:54 2021

Memory usage per processor = 81.8874 Mbytes
    Step    Atoms         KinEng              1         Volume 
  197001    14654  5.9115012e-05  0.00013810805      0.0385361 
WARNING: time-step is 20.217870 % of rayleigh time (../fix_check_timestep_gran.cpp:200)
  198000    14637  4.6985471e-05  0.00014455675      0.0385361 
  198001    14637  4.7259538e-05  0.00014486763      0.0385361 
Loop time of 21.6712 on 1 procs for 1000 steps with 14637 atoms, finish time Wed Nov 24 17:28:15 2021


Pair  time (%) = 19.0545 (87.9253)
Neigh time (%) = 0.128097 (0.591091)
Comm  time (%) = 0.00149611 (0.00690368)
Outpt time (%) = 0.525553 (2.42512)
Other time (%) = 1.96159 (9.05161)

Nlocal:    14637 ave 14637 max 14637 min
Histogram: 1 0 0 0 0 0 0 0 0 0
Nghost:    0 ave 0 max 0 min
Histogram: 1 0 0 0 0 0 0 0 0 0
Neighs:    744214 ave 744214 max 744214 min
Histogram: 1 0 0 0 0 0 0 0 0 0

Total # of neighbors = 744214
Ave neighs/atom = 50.8447
Neighbor list builds = 4
Dangerous builds = 0
print 'KINETIC ENERGY = ${ec} and parameters = (${poisson}, ${CoF}, ${CoRest}, ${CoRF})'
KINETIC ENERGY = 4.72595380335169e-05 and parameters = (0.175383762403457, 0.348010506435711, 0.0501, 1)


if "${ec} < 1e-5" then "jump in.15_angle_end" else "jump in.14_angle_emptying"
jump in.14_angle_emptying
print 'FORMING THE ANGLE OF REPOSE'
FORMING THE ANGLE OF REPOSE

run	1000 every 1000 "print 'KINETIC ENERGY = ${ec} and parameters = (${poisson}, ${CoF}, ${CoRest}, ${CoRF})'"
Setting up run at Wed Nov 24 17:28:15 2021

Memory usage per processor = 81.8874 Mbytes
    Step    Atoms         KinEng              1         Volume 
  198001    14635  3.4824137e-05  0.00014482698      0.0385361 
WARNING: time-step is 20.217870 % of rayleigh time (../fix_check_timestep_gran.cpp:200)
  199000    14620  2.7823888e-05  0.00015013763      0.0385361 
  199001    14620  2.7982602e-05  0.00015000177      0.0385361 
Loop time of 24.694 on 1 procs for 1000 steps with 14620 atoms, finish time Wed Nov 24 17:28:40 2021


Pair  time (%) = 21.7623 (88.1277)
Neigh time (%) = 0.147172 (0.595982)
Comm  time (%) = 0.00153076 (0.00619893)
Outpt time (%) = 0.608555 (2.46438)
Other time (%) = 2.17448 (8.80571)

Nlocal:    14620 ave 14620 max 14620 min
Histogram: 1 0 0 0 0 0 0 0 0 0
Nghost:    0 ave 0 max 0 min
Histogram: 1 0 0 0 0 0 0 0 0 0
Neighs:    743500 ave 743500 max 743500 min
Histogram: 1 0 0 0 0 0 0 0 0 0

Total # of neighbors = 743500
Ave neighs/atom = 50.855
Neighbor list builds = 4
Dangerous builds = 0
print 'KINETIC ENERGY = ${ec} and parameters = (${poisson}, ${CoF}, ${CoRest}, ${CoRF})'
KINETIC ENERGY = 2.79826017612507e-05 and parameters = (0.175383762403457, 0.348010506435711, 0.0501, 1)


if "${ec} < 1e-5" then "jump in.15_angle_end" else "jump in.14_angle_emptying"
jump in.14_angle_emptying
print 'FORMING THE ANGLE OF REPOSE'
FORMING THE ANGLE OF REPOSE

run	1000 every 1000 "print 'KINETIC ENERGY = ${ec} and parameters = (${poisson}, ${CoF}, ${CoRest}, ${CoRF})'"
Setting up run at Wed Nov 24 17:28:40 2021

Memory usage per processor = 81.8874 Mbytes
    Step    Atoms         KinEng              1         Volume 
  199001    14619  2.4771141e-05   0.0001499954      0.0385361 
WARNING: time-step is 20.217870 % of rayleigh time (../fix_check_timestep_gran.cpp:200)
  200000    14607  1.7749972e-05  0.00015678436      0.0385361 
  200001    14607  1.7715211e-05  0.00015677731      0.0385361 
Loop time of 21.6237 on 1 procs for 1000 steps with 14607 atoms, finish time Wed Nov 24 17:29:02 2021


Pair  time (%) = 19.0208 (87.9629)
Neigh time (%) = 0.125331 (0.579599)
Comm  time (%) = 0.00145829 (0.00674396)
Outpt time (%) = 0.522767 (2.41757)
Other time (%) = 1.95331 (9.0332)

Nlocal:    14607 ave 14607 max 14607 min
Histogram: 1 0 0 0 0 0 0 0 0 0
Nghost:    0 ave 0 max 0 min
Histogram: 1 0 0 0 0 0 0 0 0 0
Neighs:    742964 ave 742964 max 742964 min
Histogram: 1 0 0 0 0 0 0 0 0 0

Total # of neighbors = 742964
Ave neighs/atom = 50.8636
Neighbor list builds = 4
Dangerous builds = 0
print 'KINETIC ENERGY = ${ec} and parameters = (${poisson}, ${CoF}, ${CoRest}, ${CoRF})'
KINETIC ENERGY = 1.77152114776707e-05 and parameters = (0.175383762403457, 0.348010506435711, 0.0501, 1)


if "${ec} < 1e-5" then "jump in.15_angle_end" else "jump in.14_angle_emptying"
jump in.14_angle_emptying
print 'FORMING THE ANGLE OF REPOSE'
FORMING THE ANGLE OF REPOSE

run	1000 every 1000 "print 'KINETIC ENERGY = ${ec} and parameters = (${poisson}, ${CoF}, ${CoRest}, ${CoRF})'"
Setting up run at Wed Nov 24 17:29:02 2021

Memory usage per processor = 81.8874 Mbytes
    Step    Atoms         KinEng              1         Volume 
  200001    14607  1.7715211e-05  0.00015677731      0.0385361 
WARNING: time-step is 20.217870 % of rayleigh time (../fix_check_timestep_gran.cpp:200)
  201000    14602  2.8896519e-05  0.00016470562      0.0385361 
  201001    14601  2.2065643e-05  0.00016452059      0.0385361 
Loop time of 24.2083 on 1 procs for 1000 steps with 14601 atoms, finish time Wed Nov 24 17:29:26 2021


Pair  time (%) = 21.3086 (88.0219)
Neigh time (%) = 0.148921 (0.615163)
Comm  time (%) = 0.00464663 (0.0191943)
Outpt time (%) = 0.605691 (2.50199)
Other time (%) = 2.14044 (8.84174)

Nlocal:    14601 ave 14601 max 14601 min
Histogram: 1 0 0 0 0 0 0 0 0 0
Nghost:    0 ave 0 max 0 min
Histogram: 1 0 0 0 0 0 0 0 0 0
Neighs:    742527 ave 742527 max 742527 min
Histogram: 1 0 0 0 0 0 0 0 0 0

Total # of neighbors = 742527
Ave neighs/atom = 50.8545
Neighbor list builds = 4
Dangerous builds = 0
print 'KINETIC ENERGY = ${ec} and parameters = (${poisson}, ${CoF}, ${CoRest}, ${CoRF})'
KINETIC ENERGY = 2.20656425520382e-05 and parameters = (0.175383762403457, 0.348010506435711, 0.0501, 1)


if "${ec} < 1e-5" then "jump in.15_angle_end" else "jump in.14_angle_emptying"
jump in.14_angle_emptying
print 'FORMING THE ANGLE OF REPOSE'
FORMING THE ANGLE OF REPOSE

run	1000 every 1000 "print 'KINETIC ENERGY = ${ec} and parameters = (${poisson}, ${CoF}, ${CoRest}, ${CoRF})'"
Setting up run at Wed Nov 24 17:29:26 2021

Memory usage per processor = 81.8874 Mbytes
    Step    Atoms         KinEng              1         Volume 
  201001    14601  2.2065643e-05  0.00016452059      0.0385361 
WARNING: time-step is 20.217870 % of rayleigh time (../fix_check_timestep_gran.cpp:200)
  202000    14593  3.0455307e-05  0.00016939477      0.0385361 
  202001    14593   3.061807e-05  0.00016935933      0.0385361 
Loop time of 21.5251 on 1 procs for 1000 steps with 14593 atoms, finish time Wed Nov 24 17:29:48 2021


Pair  time (%) = 18.9258 (87.9241)
Neigh time (%) = 0.126667 (0.588463)
Comm  time (%) = 0.00144321 (0.00670478)
Outpt time (%) = 0.527923 (2.45259)
Other time (%) = 1.94332 (9.02813)

Nlocal:    14593 ave 14593 max 14593 min
Histogram: 1 0 0 0 0 0 0 0 0 0
Nghost:    0 ave 0 max 0 min
Histogram: 1 0 0 0 0 0 0 0 0 0
Neighs:    742188 ave 742188 max 742188 min
Histogram: 1 0 0 0 0 0 0 0 0 0

Total # of neighbors = 742188
Ave neighs/atom = 50.8592
Neighbor list builds = 4
Dangerous builds = 0
print 'KINETIC ENERGY = ${ec} and parameters = (${poisson}, ${CoF}, ${CoRest}, ${CoRF})'
KINETIC ENERGY = 3.061807037452e-05 and parameters = (0.175383762403457, 0.348010506435711, 0.0501, 1)


if "${ec} < 1e-5" then "jump in.15_angle_end" else "jump in.14_angle_emptying"
jump in.14_angle_emptying
print 'FORMING THE ANGLE OF REPOSE'
FORMING THE ANGLE OF REPOSE

run	1000 every 1000 "print 'KINETIC ENERGY = ${ec} and parameters = (${poisson}, ${CoF}, ${CoRest}, ${CoRF})'"
Setting up run at Wed Nov 24 17:29:48 2021

Memory usage per processor = 81.8874 Mbytes
    Step    Atoms         KinEng              1         Volume 
  202001    14591  1.5823124e-05  0.00016932107      0.0385361 
WARNING: time-step is 20.217870 % of rayleigh time (../fix_check_timestep_gran.cpp:200)
  203000    14585  2.6030041e-05  0.00016926453      0.0385361 
  203001    14585  2.6209045e-05  0.00016951465      0.0385361 
Loop time of 22.8052 on 1 procs for 1000 steps with 14585 atoms, finish time Wed Nov 24 17:30:11 2021


Pair  time (%) = 20.0852 (88.0725)
Neigh time (%) = 0.0940191 (0.41227)
Comm  time (%) = 0.00127627 (0.00559637)
Outpt time (%) = 0.601175 (2.63612)
Other time (%) = 2.02362 (8.87347)

Nlocal:    14585 ave 14585 max 14585 min
Histogram: 1 0 0 0 0 0 0 0 0 0
Nghost:    0 ave 0 max 0 min
Histogram: 1 0 0 0 0 0 0 0 0 0
Neighs:    741810 ave 741810 max 741810 min
Histogram: 1 0 0 0 0 0 0 0 0 0

Total # of neighbors = 741810
Ave neighs/atom = 50.8612
Neighbor list builds = 3
Dangerous builds = 0
print 'KINETIC ENERGY = ${ec} and parameters = (${poisson}, ${CoF}, ${CoRest}, ${CoRF})'
KINETIC ENERGY = 2.62090445113692e-05 and parameters = (0.175383762403457, 0.348010506435711, 0.0501, 1)


if "${ec} < 1e-5" then "jump in.15_angle_end" else "jump in.14_angle_emptying"
jump in.14_angle_emptying
print 'FORMING THE ANGLE OF REPOSE'
FORMING THE ANGLE OF REPOSE

run	1000 every 1000 "print 'KINETIC ENERGY = ${ec} and parameters = (${poisson}, ${CoF}, ${CoRest}, ${CoRF})'"
Setting up run at Wed Nov 24 17:30:11 2021

Memory usage per processor = 81.8874 Mbytes
    Step    Atoms         KinEng              1         Volume 
  203001    14584  2.2696162e-05  0.00016951334      0.0385361 
WARNING: time-step is 20.217870 % of rayleigh time (../fix_check_timestep_gran.cpp:200)
  204000    14577  3.1686242e-05  0.00017734777      0.0385361 
  204001    14577  3.1819143e-05  0.00017751013      0.0385361 
Loop time of 22.8282 on 1 procs for 1000 steps with 14577 atoms, finish time Wed Nov 24 17:30:34 2021


Pair  time (%) = 20.1758 (88.381)
Neigh time (%) = 0.0952805 (0.41738)
Comm  time (%) = 0.00130311 (0.00570831)
Outpt time (%) = 0.52542 (2.30162)
Other time (%) = 2.03041 (8.8943)

Nlocal:    14577 ave 14577 max 14577 min
Histogram: 1 0 0 0 0 0 0 0 0 0
Nghost:    0 ave 0 max 0 min
Histogram: 1 0 0 0 0 0 0 0 0 0
Neighs:    741365 ave 741365 max 741365 min
Histogram: 1 0 0 0 0 0 0 0 0 0

Total # of neighbors = 741365
Ave neighs/atom = 50.8585
Neighbor list builds = 3
Dangerous builds = 0
print 'KINETIC ENERGY = ${ec} and parameters = (${poisson}, ${CoF}, ${CoRest}, ${CoRF})'
KINETIC ENERGY = 3.1819142981568e-05 and parameters = (0.175383762403457, 0.348010506435711, 0.0501, 1)


if "${ec} < 1e-5" then "jump in.15_angle_end" else "jump in.14_angle_emptying"
jump in.14_angle_emptying
print 'FORMING THE ANGLE OF REPOSE'
FORMING THE ANGLE OF REPOSE

run	1000 every 1000 "print 'KINETIC ENERGY = ${ec} and parameters = (${poisson}, ${CoF}, ${CoRest}, ${CoRF})'"
Setting up run at Wed Nov 24 17:30:34 2021

Memory usage per processor = 81.8874 Mbytes
    Step    Atoms         KinEng              1         Volume 
  204001    14575  2.3179549e-05  0.00017736074      0.0385361 
WARNING: time-step is 20.217870 % of rayleigh time (../fix_check_timestep_gran.cpp:200)
  205000    14568  1.5930621e-05  0.00018713913      0.0385361 
  205001    14568  1.5865124e-05  0.00018688706      0.0385361 
Loop time of 22.4626 on 1 procs for 1000 steps with 14568 atoms, finish time Wed Nov 24 17:30:56 2021


Pair  time (%) = 19.7271 (87.8221)
Neigh time (%) = 0.129414 (0.57613)
Comm  time (%) = 0.00150666 (0.00670742)
Outpt time (%) = 0.590466 (2.62866)
Other time (%) = 2.01409 (8.96641)

Nlocal:    14568 ave 14568 max 14568 min
Histogram: 1 0 0 0 0 0 0 0 0 0
Nghost:    0 ave 0 max 0 min
Histogram: 1 0 0 0 0 0 0 0 0 0
Neighs:    741022 ave 741022 max 741022 min
Histogram: 1 0 0 0 0 0 0 0 0 0

Total # of neighbors = 741022
Ave neighs/atom = 50.8664
Neighbor list builds = 4
Dangerous builds = 0
print 'KINETIC ENERGY = ${ec} and parameters = (${poisson}, ${CoF}, ${CoRest}, ${CoRF})'
KINETIC ENERGY = 1.58651243189738e-05 and parameters = (0.175383762403457, 0.348010506435711, 0.0501, 1)


if "${ec} < 1e-5" then "jump in.15_angle_end" else "jump in.14_angle_emptying"
jump in.14_angle_emptying
print 'FORMING THE ANGLE OF REPOSE'
FORMING THE ANGLE OF REPOSE

run	1000 every 1000 "print 'KINETIC ENERGY = ${ec} and parameters = (${poisson}, ${CoF}, ${CoRest}, ${CoRF})'"
Setting up run at Wed Nov 24 17:30:56 2021

Memory usage per processor = 81.8874 Mbytes
    Step    Atoms         KinEng              1         Volume 
  205001    14568  1.5865124e-05  0.00018688706      0.0385361 
WARNING: time-step is 20.217870 % of rayleigh time (../fix_check_timestep_gran.cpp:200)
  206000    14563  1.1382125e-05  0.00019703125      0.0385361 
  206001    14563  1.1373592e-05  0.00019698681      0.0385361 
Loop time of 23.1945 on 1 procs for 1000 steps with 14563 atoms, finish time Wed Nov 24 17:31:20 2021


Pair  time (%) = 20.4603 (88.2118)
Neigh time (%) = 0.125207 (0.539811)
Comm  time (%) = 0.0014154 (0.00610229)
Outpt time (%) = 0.538385 (2.32117)
Other time (%) = 2.06922 (8.92114)

Nlocal:    14563 ave 14563 max 14563 min
Histogram: 1 0 0 0 0 0 0 0 0 0
Nghost:    0 ave 0 max 0 min
Histogram: 1 0 0 0 0 0 0 0 0 0
Neighs:    740853 ave 740853 max 740853 min
Histogram: 1 0 0 0 0 0 0 0 0 0

Total # of neighbors = 740853
Ave neighs/atom = 50.8723
Neighbor list builds = 4
Dangerous builds = 0
print 'KINETIC ENERGY = ${ec} and parameters = (${poisson}, ${CoF}, ${CoRest}, ${CoRF})'
KINETIC ENERGY = 1.13735917659913e-05 and parameters = (0.175383762403457, 0.348010506435711, 0.0501, 1)


if "${ec} < 1e-5" then "jump in.15_angle_end" else "jump in.14_angle_emptying"
jump in.14_angle_emptying
print 'FORMING THE ANGLE OF REPOSE'
FORMING THE ANGLE OF REPOSE

run	1000 every 1000 "print 'KINETIC ENERGY = ${ec} and parameters = (${poisson}, ${CoF}, ${CoRest}, ${CoRF})'"
Setting up run at Wed Nov 24 17:31:20 2021

Memory usage per processor = 81.8874 Mbytes
    Step    Atoms         KinEng              1         Volume 
  206001    14563  1.1373592e-05  0.00019698681      0.0385361 
WARNING: time-step is 20.217870 % of rayleigh time (../fix_check_timestep_gran.cpp:200)
  207000    14561  1.9796084e-05  0.00020795838      0.0385361 
  207001    14561  1.9821313e-05  0.00020774649      0.0385361 
Loop time of 22.2439 on 1 procs for 1000 steps with 14561 atoms, finish time Wed Nov 24 17:31:42 2021


Pair  time (%) = 19.6155 (88.1839)
Neigh time (%) = 0.0620941 (0.279152)
Comm  time (%) = 0.00118307 (0.00531865)
Outpt time (%) = 0.587184 (2.63976)
Other time (%) = 1.9779 (8.89189)

Nlocal:    14561 ave 14561 max 14561 min
Histogram: 1 0 0 0 0 0 0 0 0 0
Nghost:    0 ave 0 max 0 min
Histogram: 1 0 0 0 0 0 0 0 0 0
Neighs:    740660 ave 740660 max 740660 min
Histogram: 1 0 0 0 0 0 0 0 0 0

Total # of neighbors = 740660
Ave neighs/atom = 50.866
Neighbor list builds = 2
Dangerous builds = 0
print 'KINETIC ENERGY = ${ec} and parameters = (${poisson}, ${CoF}, ${CoRest}, ${CoRF})'
KINETIC ENERGY = 1.98213128319269e-05 and parameters = (0.175383762403457, 0.348010506435711, 0.0501, 1)


if "${ec} < 1e-5" then "jump in.15_angle_end" else "jump in.14_angle_emptying"
jump in.14_angle_emptying
print 'FORMING THE ANGLE OF REPOSE'
FORMING THE ANGLE OF REPOSE

run	1000 every 1000 "print 'KINETIC ENERGY = ${ec} and parameters = (${poisson}, ${CoF}, ${CoRest}, ${CoRF})'"
Setting up run at Wed Nov 24 17:31:42 2021

Memory usage per processor = 81.8874 Mbytes
    Step    Atoms         KinEng              1         Volume 
  207001    14561  1.9821313e-05  0.00020774649      0.0385361 
WARNING: time-step is 20.217870 % of rayleigh time (../fix_check_timestep_gran.cpp:200)
  208000    14551  1.2991876e-05  0.00021900439      0.0385361 
  208001    14551  1.2831312e-05  0.00021858736      0.0385361 
Loop time of 23.8446 on 1 procs for 1000 steps with 14551 atoms, finish time Wed Nov 24 17:32:06 2021


Pair  time (%) = 21.0625 (88.3324)
Neigh time (%) = 0.126207 (0.529291)
Comm  time (%) = 0.0014613 (0.00612844)
Outpt time (%) = 0.530754 (2.22589)
Other time (%) = 2.12366 (8.90626)

Nlocal:    14551 ave 14551 max 14551 min
Histogram: 1 0 0 0 0 0 0 0 0 0
Nghost:    0 ave 0 max 0 min
Histogram: 1 0 0 0 0 0 0 0 0 0
Neighs:    740258 ave 740258 max 740258 min
Histogram: 1 0 0 0 0 0 0 0 0 0

Total # of neighbors = 740258
Ave neighs/atom = 50.8733
Neighbor list builds = 4
Dangerous builds = 0
print 'KINETIC ENERGY = ${ec} and parameters = (${poisson}, ${CoF}, ${CoRest}, ${CoRF})'
KINETIC ENERGY = 1.28313121999042e-05 and parameters = (0.175383762403457, 0.348010506435711, 0.0501, 1)


if "${ec} < 1e-5" then "jump in.15_angle_end" else "jump in.14_angle_emptying"
jump in.14_angle_emptying
print 'FORMING THE ANGLE OF REPOSE'
FORMING THE ANGLE OF REPOSE

run	1000 every 1000 "print 'KINETIC ENERGY = ${ec} and parameters = (${poisson}, ${CoF}, ${CoRest}, ${CoRF})'"
Setting up run at Wed Nov 24 17:32:06 2021

Memory usage per processor = 81.8874 Mbytes
    Step    Atoms         KinEng              1         Volume 
  208001    14551  1.2831312e-05  0.00021858736      0.0385361 
WARNING: time-step is 20.217870 % of rayleigh time (../fix_check_timestep_gran.cpp:200)
  209000    14544  9.4102286e-06  0.00022992426      0.0385361 
  209001    14544  9.4097152e-06  0.00023014894      0.0385361 
Loop time of 21.4761 on 1 procs for 1000 steps with 14544 atoms, finish time Wed Nov 24 17:32:28 2021


Pair  time (%) = 18.8784 (87.9046)
Neigh time (%) = 0.125644 (0.585042)
Comm  time (%) = 0.00140308 (0.00653323)
Outpt time (%) = 0.525403 (2.44646)
Other time (%) = 1.94517 (9.0574)

Nlocal:    14544 ave 14544 max 14544 min
Histogram: 1 0 0 0 0 0 0 0 0 0
Nghost:    0 ave 0 max 0 min
Histogram: 1 0 0 0 0 0 0 0 0 0
Neighs:    739880 ave 739880 max 739880 min
Histogram: 1 0 0 0 0 0 0 0 0 0

Total # of neighbors = 739880
Ave neighs/atom = 50.8718
Neighbor list builds = 4
Dangerous builds = 0
print 'KINETIC ENERGY = ${ec} and parameters = (${poisson}, ${CoF}, ${CoRest}, ${CoRF})'
KINETIC ENERGY = 9.40971524714314e-06 and parameters = (0.175383762403457, 0.348010506435711, 0.0501, 1)


if "${ec} < 1e-5" then "jump in.15_angle_end" else "jump in.14_angle_emptying"
jump in.15_angle_end
run 1000 every 1000 "print 'KINETIC ENERGY = ${ec}'"
Setting up run at Wed Nov 24 17:32:28 2021

Memory usage per processor = 81.8874 Mbytes
    Step    Atoms         KinEng              1         Volume 
  209001    14544  9.4097152e-06  0.00023014894      0.0385361 
WARNING: time-step is 20.217870 % of rayleigh time (../fix_check_timestep_gran.cpp:200)
  210000    14541  2.2146591e-05  0.00024198286      0.0385361 
  210001    14541  2.2166285e-05  0.00024190613      0.0385361 
Loop time of 21.3868 on 1 procs for 1000 steps with 14541 atoms, finish time Wed Nov 24 17:32:49 2021


Pair  time (%) = 18.841 (88.0965)
Neigh time (%) = 0.094062 (0.439813)
Comm  time (%) = 0.00125814 (0.0058828)
Outpt time (%) = 0.515211 (2.40901)
Other time (%) = 1.93526 (9.04883)

Nlocal:    14541 ave 14541 max 14541 min
Histogram: 1 0 0 0 0 0 0 0 0 0
Nghost:    0 ave 0 max 0 min
Histogram: 1 0 0 0 0 0 0 0 0 0
Neighs:    739674 ave 739674 max 739674 min
Histogram: 1 0 0 0 0 0 0 0 0 0

Total # of neighbors = 739674
Ave neighs/atom = 50.8682
Neighbor list builds = 3
Dangerous builds = 0
print 'KINETIC ENERGY = ${ec}'
KINETIC ENERGY = 2.21662853433139e-05
